<VTKFile type="PolyData">
<PolyData>
<Piece NumberOfPoints="6715" NumberOfVerts="6715" NumberOfLines="0" NumberOfStrips="0" NumberOfPolys="0">
<PointData>
<DataArray type="Float64" Name="Pressure" format="ascii">
 33149.396925 35270.992383 37641.139301 38136.455080 38747.274337 38627.318816 38672.645599 40270.857910 41421.470826 42186.714698 39176.351046 33069.153360 30162.090160 28476.192153 28371.533107 27964.782479 27278.691420 29076.081799 29957.039135 29303.389418 31098.899129 34704.381286 35468.557967 33213.533226 30960.832747 31138.430149 32372.158255 32735.345426 32866.469093 31904.669891 31460.605010 31831.135517 32562.755361 32129.997369 31542.683902 30992.248463 29726.702835 29073.092477 28822.714796 28678.160326 27984.008950 26264.972749 24452.197217 24766.317681 25304.643252 25605.607724 25805.309910 25407.861141 25365.441875 25552.402980 25615.639441 24527.072891 22907.546980 22635.866940 22979.405655 22361.274048 21082.700762 20455.891223 20817.170462 21285.882097 21080.932339 20272.765055 19588.895729 19592.076499 20358.233190 21544.635248 21488.540074 21187.707925 21034.141584 21503.737953 22090.280126 22783.609041 22543.845044 21259.366624 20147.400467 19781.639787 20980.119317 22059.612834 23498.779168 24258.202981 24011.481618 23259.192473 22451.197267 21769.043433 20813.491468 20534.398633 20896.964321 21577.763558 21648.033190 20568.379644 19420.544596 18518.597707 18554.685174 19298.607870 19725.764503 19985.063413 19486.066270 18754.680446 18246.225280 18033.557766 18027.444377 19040.046805 19790.494585 19808.398086 19683.631808 19247.363644 18818.520203 18417.737665 18486.154434 18847.207817 19560.165361 19998.280981 19667.131557 19304.619265 19394.366784 19609.056840 18996.303697 18150.938492 17905.806534 17941.262195 18135.290301 18313.540459 18254.553557 17971.709171 17711.140790 17709.554424 17404.643617 17123.276846 16964.658204 16991.829777 16925.589178 16456.760249 16248.686662 16257.966031 16533.180815 16620.913873 16761.698670 16488.618988 15978.431023 15702.776156 15276.483012 14910.980238 14591.484404 14216.825649 13774.616934 13353.328605 13069.826463 13088.543368 13318.040360 13619.420618 13710.583338 13383.982076 13084.739035 12829.987833 12821.756062 13165.510606 13392.259297 13559.077082 13702.430612 13851.580055 14089.320630 14220.197189 14208.329822 14268.392140 14522.540086 14764.259841 14589.931129 14425.016843 14238.370047 14238.484572 14613.492103 14892.580529 14891.474826 14612.765897 14133.376158 13926.754798 13894.881378 14044.626064 14219.072567 14118.889116 13888.606761 13735.763288 13656.517208 13447.057920 13105.546596 12863.009223 12827.437700 12851.164399 12701.753505 12439.422315 12113.132482 11949.775922 11835.308750 11844.287163 11732.084135 11562.718554 11124.106867 10687.533780 10420.832936 10329.251542 10267.738736 30556.421475 31726.959635 33214.532051 34960.174016 36384.264084 37653.975572 38698.859907 39313.656221 39581.624197 39524.372692 39477.733524 38795.552620 37134.268683 35878.073687 34451.342558 32310.664218 30883.980563 30823.423928 31388.684359 31340.606252 31010.781326 31352.469187 31662.886764 31281.561929 29995.732061 29196.090421 29286.374450 29733.533239 30396.474059 30485.322120 30226.678456 30127.998656 30538.718261 31140.090647 31226.295264 30411.728450 29486.036132 28593.016250 27655.393510 27312.451550 27000.637377 26234.423694 25272.001699 24279.860150 23927.666060 24056.970981 24127.748366 23929.929487 23764.033232 23793.488613 24013.429139 24201.225092 23903.793022 22862.862078 21859.095332 21445.837598 21303.321045 20822.361708 20274.260459 20311.096147 20584.881287 20408.581863 19913.573739 19528.399052 19524.580929 19933.329885 20299.306122 20355.036136 20312.208737 20478.070712 20745.368860 21133.800213 21540.858692 21328.088972 20353.557890 19411.258288 19092.266665 19476.934914 20358.878303 21268.141801 21869.719898 21932.172366 21215.876509 20078.594077 19366.383583 19034.570789 19032.782369 19705.415752 20246.706850 19958.813170 19078.781868 18368.861141 18072.697431 18118.331277 18436.199979 18593.405902 18421.963143 18201.249669 17915.819641 17484.162599 17268.727991 17511.202534 18213.983972 18986.563354 19250.208733 18965.610086 18478.689922 17978.357776 17582.980064 17611.013195 18061.748020 18579.130358 18845.444515 18668.764075 18267.287898 17937.734351 17646.440077 17149.787572 16676.372068 16609.828988 16756.740113 16906.368111 16896.839848 16702.748729 16522.556159 16316.688253 16026.260918 15646.260076 15549.530244 15785.282270 15706.246983 15388.692975 15128.571573 14784.831623 14604.391486 14746.428154 14939.764447 14959.798826 14779.687922 14498.796939 14193.183187 13895.681678 13657.116303 13453.829019 13249.152096 12938.322666 12591.273822 12407.321819 12471.688543 12747.313144 13055.800442 13240.157565 13206.797309 13023.677050 12858.886297 12776.460856 12874.168794 13061.030944 13165.665867 13218.673475 13389.786413 13632.617757 13702.789705 13664.493216 13736.040716 13898.787631 14030.902566 14028.272451 13860.946294 13707.941253 13849.198259 14243.462795 14563.220024 14542.343683 14212.174542 13798.878435 13468.113666 13279.264858 13260.936725 13351.126952 13336.711146 13190.289688 13055.665976 12828.977631 12474.486999 12196.605642 12049.787137 12000.547950 12013.743319 11989.603294 11861.995418 11731.988117 11610.170137 11435.002120 11344.763247 11231.636398 11020.555933 10750.228164 10525.421685 10415.375223 10373.771624 10375.810518 10420.964787 29363.251709 29879.361598 30981.931472 32350.955642 33757.856057 35073.452652 36208.349403 37243.488887 37997.520294 38311.121670 38273.613163 37954.826322 37495.270793 36825.761574 36027.088670 34898.912637 33165.586873 31655.020121 31052.812422 30999.390837 30967.091357 30808.765033 30489.714329 29911.714811 29108.575541 28193.453699 27639.022245 27653.954590 28171.458291 28744.309362 28858.965715 28775.377622 28869.931869 29311.448733 29825.513048 29900.363168 29354.378754 28609.202415 27844.050764 27121.457017 26597.444463 26044.592446 25355.592405 24756.169270 24236.410567 23757.185510 23328.037912 22876.868541 22484.249020 22345.219790 22495.523607 22825.279387 23093.320619 22946.321983 22239.666243 21360.070314 20796.735469 20583.801950 20463.578059 20349.995037 20396.436099 20478.633921 20346.416775 20009.211872 19707.132721 19660.666726 19830.202865 20005.409177 20069.573712 20102.219631 20251.737749 20484.107283 20751.288478 20932.406785 20743.624338 20120.814013 19393.487791 18922.116442 18886.193420 19297.676697 19873.727708 20346.377139 20444.400559 19946.294345 19075.612752 18377.837246 18165.552052 18405.236903 18944.774415 19313.250114 19150.652115 18624.632526 18123.643974 17796.575617 17587.980714 17504.347160 17461.243049 17381.394995 17352.449180 17299.601479 17151.775430 17095.568451 17315.040444 17769.220797 18286.304426 18514.870639 18303.695707 17837.443101 17331.059548 16988.894981 16973.016774 17264.455941 17602.681668 17776.035149 17745.456756 17563.308316 17299.839241 16996.850752 16677.014477 16442.456089 16371.540469 16419.175972 16373.732756 16093.456009 15694.749967 15335.740602 15026.082441 14743.243108 14578.604599 14568.606990 14649.018805 14636.894721 14513.475388 14326.247812 14068.015739 13909.779670 13935.684674 14023.336243 14025.525517 13943.099584 13743.947768 13437.965085 13150.217496 12941.194993 12788.247397 12617.851572 12385.315997 12156.447840 12046.244020 12137.986018 12398.985698 12688.387301 12885.801668 12938.961360 12888.173375 12847.746399 12861.111616 12916.712745 12981.670011 12984.866105 12982.959260 13055.349403 13175.780521 13249.078688 13278.263298 13346.924174 13421.527713 13454.962778 13438.596405 13354.322877 13353.304077 13571.145437 13905.835834 14173.971881 14203.459197 13954.488746 13576.929090 13199.483118 12930.634091 12832.112349 12844.901490 12821.754055 12705.607803 12541.768906 12305.393273 12017.686708 11780.002234 11606.843445 11505.010281 11487.736055 11494.070267 11471.616651 11431.057692 11337.155732 11190.478502 11055.066519 10925.273153 10750.510851 10578.624294 10456.467294 10391.560355 10383.715948 10430.629403 10509.495472 10562.700003 10267.738736 10046.156070 9692.435892 9214.655292 8645.380654 7951.229569 7238.982312 6616.743074 5997.314802 5314.923949 4715.737753 4096.875871 3640.691836 3202.468664 2457.566529 1662.994382 1205.348169 836.653464 215.084102 -512.324558 -486.140082 -29.886679 348.921263 623.062811 794.598751 871.776944 878.586745 836.911250 765.276931 678.365327 586.924306 498.165323 416.425085 343.872980 281.169139 228.019804 183.603717 146.870503 116.729473 92.154798 72.233315 56.177166 43.317709 33.091512 25.024678 18.718565 13.837923 10.101447 7.274234 5.161604 3.603794 2.471226 1.660174 1.088771 0.693346 0.425131 0.247356 0.132731 0.061339 0.018892 -0.004679 -0.016328 -0.020756 -0.021060 -0.019223 -0.016466 -0.013500 -0.010710 -0.008277 -0.006258 -0.004643 -0.003387 -0.002433 -0.001723 -0.001204 -0.000831 -0.000566 -0.000382 -0.000254 -0.000167 -0.000109 -0.000070 -0.000045 -0.000028 -0.000018 -0.000011 -0.000007 -0.000004 -0.000002 -0.000001 -0.000001 -0.000000 -0.000000 -0.000000 -0.000000 -0.000000 -0.000000 -0.000000 -0.000000 -0.000000 -0.000000 10420.964787 10224.757945 9852.715702 9360.360446 8842.385047 8232.020492 7525.024477 6828.223038 6179.770855 5556.168847 4942.085313 4317.185131 3729.558960 3214.599134 2669.457794 2040.382201 1443.354659 986.985475 592.108292 162.104693 -169.522064 -167.021197 83.631657 389.289360 642.955338 803.562602 876.362366 881.210965 838.391953 765.987310 678.558206 586.785125 497.831557 415.996804 343.418575 280.731170 227.621332 183.254336 146.571413 116.477298 91.944163 72.058400 56.032512 43.198539 32.993782 24.944996 18.654071 13.786183 10.060359 7.241975 5.136587 3.584646 2.456771 1.649419 1.080888 0.687659 0.421098 0.244546 0.130813 0.060060 0.018061 -0.005201 -0.016642 -0.020933 -0.021151 -0.019261 -0.016472 -0.013489 -0.010693 -0.008258 -0.006239 -0.004626 -0.003373 -0.002422 -0.001714 -0.001197 -0.000826 -0.000563 -0.000379 -0.000252 -0.000166 -0.000108 -0.000070 -0.000044 -0.000028 -0.000018 -0.000011 -0.000007 -0.000004 -0.000002 -0.000001 -0.000001 -0.000000 -0.000000 -0.000000 -0.000000 -0.000000 -0.000000 -0.000000 -0.000000 -0.000000 -0.000000 -0.000000 10562.700003 10455.977613 10178.754982 9737.489390 9213.890247 8637.827883 8003.505176 7323.591093 6645.995057 5992.488610 5360.200687 4743.095106 4135.100467 3553.783026 3004.026855 2446.797789 1875.731650 1344.762008 898.661903 516.415242 180.647555 -35.031702 -34.974865 155.988855 421.285608 652.980486 804.318384 874.732785 879.519573 837.224074 765.377436 678.395338 586.933259 498.168069 416.425942 343.873244 281.169218 228.019828 183.603724 146.870505 116.729474 92.154799 72.233315 56.177166 43.317709 33.091512 25.024678 18.718565 13.837923 10.101447 7.274234 5.161604 3.603794 2.471226 1.660174 1.088771 0.693346 0.425131 0.247356 0.132731 0.061339 0.018892 -0.004679 -0.016328 -0.020756 -0.021060 -0.019223 -0.016466 -0.013500 -0.010710 -0.008277 -0.006258 -0.004643 -0.003387 -0.002433 -0.001723 -0.001204 -0.000831 -0.000566 -0.000382 -0.000254 -0.000167 -0.000109 -0.000070 -0.000045 -0.000028 -0.000018 -0.000011 -0.000007 -0.000004 -0.000002 -0.000001 -0.000001 -0.000000 -0.000000 -0.000000 -0.000000 -0.000000 -0.000000 -0.000000 -0.000000 -0.000000 -0.000000 -0.000000 -0.000000 -0.000000 -0.000000 -0.000000 -0.000000 -0.000000 0.000000 0.000000 0.000000 -0.000000 -0.000000 0.000000 0.000000 0.000000 -0.000000 -0.000000 0.000000 0.000000 0.000000 0.000000 0.000000 0.000000 0.000000 0.000000 0.000000 0.000000 0.000000 0.000000 0.000000 -0.000000 -0.000000 -0.000000 -0.000000 0.000000 0.000000 0.000000 -0.000000 -0.000000 0.000000 0.000000 0.000000 -0.000000 -0.000000 0.000000 -0.000000 0.000000 0.000000 0.000000 0.000000 0.000000 0.000000 0.000000 0.000000 0.000000 0.000000 0.000000 0.000000 0.000000 0.000000 0.000000 0.000000 0.000000 0.000000 0.000000 0.000000 0.000000 0.000000 0.000000 0.000000 -0.000000 0.000000 0.000000 0.000000 0.000000 0.000000 0.000000 0.000000 0.000000 0.000000 0.000000 0.000000 0.000000 0.000000 -0.000000 0.000000 0.000000 0.000000 0.000000 0.000000 0.000000 0.000000 0.000000 0.000000 0.000000 0.000000 0.000000 0.000000 0.000000 0.000000 -0.000000 0.000000 0.000000 -0.000000 0.000000 0.000000 0.000000 0.000000 -0.000000 -0.000000 -0.000000 -0.000000 -0.000000 -0.000000 -0.000000 -0.000000 -0.000000 -0.000000 -0.000000 -0.000000 -0.000000 -0.000000 -0.000000 -0.000000 -0.000000 -0.000000 -0.000000 -0.000000 -0.000000 -0.000000 -0.000000 0.000000 -0.000000 -0.000000 -0.000000 -0.000000 0.000000 0.000000 0.000000 -0.000000 0.000000 0.000000 0.000000 0.000000 -0.000000 0.000000 0.000000 0.000000 0.000000 0.000000 0.000000 0.000000 0.000000 0.000000 0.000000 0.000000 0.000000 0.000000 0.000000 0.000000 -0.000000 0.000000 0.000000 -0.000000 -0.000000 -0.000000 -0.000000 -0.000000 -0.000000 -0.000000 -0.000000 -0.000000 -0.000000 -0.000000 -0.000000 -0.000000 -0.000000 -0.000000 -0.000000 -0.000000 -0.000000 -0.000001 -0.000001 -0.000002 -0.000003 -0.000005 -0.000009 -0.000015 -0.000026 -0.000043 -0.000073 -0.000120 -0.000198 -0.000323 -0.000524 -0.000842 -0.001344 -0.002134 -0.003382 -0.005386 -0.008772 -0.014885 -0.019653 -0.000000 -0.000000 -0.000000 -0.000000 -0.000000 0.000000 0.000000 -0.000000 0.000000 0.000000 0.000000 0.000000 -0.000000 0.000000 0.000000 0.000000 0.000000 -0.000000 0.000000 0.000000 0.000000 0.000000 0.000000 0.000000 0.000000 0.000000 0.000000 0.000000 0.000000 0.000000 0.000000 -0.000000 0.000000 0.000000 -0.000000 0.000000 0.000000 0.000000 0.000000 -0.000000 0.000000 0.000000 0.000000 0.000000 -0.000000 0.000000 0.000000 0.000000 0.000000 0.000000 0.000000 0.000000 0.000000 0.000000 0.000000 0.000000 0.000000 0.000000 0.000000 0.000000 0.000000 0.000000 0.000000 0.000000 0.000000 0.000000 0.000000 0.000000 0.000000 -0.000000 -0.000000 0.000000 0.000000 0.000000 0.000000 -0.000000 0.000000 0.000000 0.000000 -0.000000 -0.000000 0.000000 0.000000 -0.000000 -0.000000 0.000000 0.000000 0.000000 -0.000000 0.000000 0.000000 0.000000 0.000000 -0.000000 0.000000 0.000000 0.000000 0.000000 -0.000000 -0.000000 0.000000 0.000000 0.000000 -0.000000 0.000000 0.000000 0.000000 0.000000 -0.000000 -0.000000 -0.000000 -0.000000 -0.000000 -0.000000 -0.000000 -0.000000 -0.000000 -0.000000 -0.000000 -0.000000 -0.000000 -0.000000 -0.000000 -0.000000 -0.000000 -0.000000 -0.000000 -0.000000 0.000000 -0.000000 -0.000000 -0.000000 -0.000000 0.000000 -0.000000 0.000000 0.000000 -0.000000 -0.000000 0.000000 0.000000 0.000000 -0.000000 -0.000000 0.000000 0.000000 0.000000 -0.000000 -0.000000 0.000000 0.000000 0.000000 0.000000 -0.000000 0.000000 0.000000 -0.000000 -0.000000 -0.000000 0.000000 0.000000 -0.000000 0.000000 0.000000 0.000000 -0.000000 -0.000000 -0.000000 -0.000000 -0.000000 -0.000000 -0.000000 -0.000000 -0.000000 -0.000000 -0.000000 -0.000000 -0.000000 -0.000000 -0.000000 -0.000001 -0.000001 -0.000002 -0.000003 -0.000005 -0.000009 -0.000015 -0.000025 -0.000043 -0.000072 -0.000119 -0.000196 -0.000320 -0.000518 -0.000832 -0.001326 -0.002097 -0.003290 -0.005116 -0.007851 -0.011631 -0.014641 -0.015452 -0.000000 -0.000000 -0.000000 -0.000000 -0.000000 0.000000 0.000000 0.000000 0.000000 0.000000 0.000000 0.000000 0.000000 0.000000 0.000000 0.000000 0.000000 0.000000 0.000000 0.000000 0.000000 0.000000 0.000000 0.000000 0.000000 0.000000 0.000000 0.000000 0.000000 0.000000 0.000000 0.000000 0.000000 0.000000 0.000000 0.000000 0.000000 0.000000 0.000000 0.000000 0.000000 0.000000 0.000000 0.000000 0.000000 0.000000 0.000000 0.000000 0.000000 0.000000 0.000000 0.000000 0.000000 0.000000 0.000000 0.000000 0.000000 0.000000 0.000000 0.000000 0.000000 0.000000 0.000000 0.000000 0.000000 0.000000 0.000000 0.000000 0.000000 0.000000 -0.000000 0.000000 0.000000 0.000000 0.000000 0.000000 0.000000 0.000000 0.000000 0.000000 0.000000 -0.000000 0.000000 0.000000 -0.000000 0.000000 0.000000 0.000000 0.000000 0.000000 0.000000 0.000000 0.000000 0.000000 -0.000000 0.000000 0.000000 0.000000 0.000000 -0.000000 -0.000000 0.000000 0.000000 0.000000 0.000000 0.000000 0.000000 0.000000 -0.000000 -0.000000 -0.000000 -0.000000 -0.000000 -0.000000 -0.000000 -0.000000 -0.000000 -0.000000 -0.000000 -0.000000 -0.000000 -0.000000 -0.000000 -0.000000 -0.000000 -0.000000 -0.000000 -0.000000 0.000000 0.000000 0.000000 -0.000000 0.000000 0.000000 0.000000 0.000000 0.000000 0.000000 0.000000 -0.000000 -0.000000 -0.000000 0.000000 0.000000 -0.000000 -0.000000 -0.000000 0.000000 0.000000 -0.000000 0.000000 0.000000 0.000000 0.000000 -0.000000 0.000000 0.000000 0.000000 -0.000000 -0.000000 0.000000 0.000000 0.000000 0.000000 0.000000 0.000000 0.000000 0.000000 0.000000 -0.000000 -0.000000 -0.000000 -0.000000 -0.000000 -0.000000 -0.000000 -0.000000 -0.000000 -0.000000 -0.000000 -0.000000 -0.000001 -0.000001 -0.000002 -0.000003 -0.000005 -0.000009 -0.000015 -0.000026 -0.000043 -0.000073 -0.000120 -0.000198 -0.000323 -0.000523 -0.000839 -0.001334 -0.002098 -0.003257 -0.004953 -0.007265 -0.009960 -0.012331 -0.013279 -0.013301 -0.019653 -0.034276 -0.066479 -0.107471 -0.162743 -0.239730 -0.347602 -0.498396 -0.707997 -0.997271 -1.393413 -1.931522 -2.656447 -3.624881 -4.907700 -6.592491 -8.786195 -11.617766 -15.240663 -19.835013 -25.609174 -32.800443 -41.674611 -52.524058 -65.664127 -81.427516 -100.156522 -122.193010 -147.866024 -177.476933 -211.281955 -249.471654 -292.146770 -339.289319 -390.727513 -446.092839 -504.767718 -565.823193 -627.948498 -689.379606 -747.843370 -800.549361 -844.284208 -875.692087 -891.849989 -891.228771 -875.043384 -848.628309 -821.698679 -813.529767 -871.497705 -1082.639663 -1236.272839 -1374.656000 -1759.767347 -1667.771993 -1243.116918 -106.716217 578.182107 364.194821 -230.578789 -890.371209 -741.824101 -137.420352 -198.413286 16.388563 -398.443523 -1016.215428 -1476.425747 -2563.843160 -3046.828528 -3190.132116 -2395.136786 -902.216501 1923.922550 3988.008986 5131.038727 6544.369462 9195.634150 13080.699874 14714.686315 14710.599893 14363.993213 15555.233722 17240.546072 19111.857062 20701.847052 22096.977450 24914.401706 27108.736487 28791.034697 30448.847923 31747.118492 33597.784895 35315.318738 36841.466971 38015.895641 37945.171897 37281.945597 35144.782312 33149.396925 -0.015452 -0.021984 -0.038780 -0.067689 -0.107209 -0.161881 -0.238380 -0.345691 -0.495764 -0.704424 -0.992473 -1.387031 -1.923114 -2.645474 -3.610699 -4.889547 -6.569482 -8.757325 -11.581911 -15.196598 -19.781439 -25.544754 -32.723855 -41.584614 -52.419573 -65.544324 -81.291912 -100.005086 -122.026271 -147.685179 -177.283972 -211.079791 -249.264293 -291.939528 -339.089104 -390.543195 -445.935694 -504.651922 -565.766248 -627.971383 -689.506221 -748.098587 -800.954620 -844.849119 -876.400992 -892.644885 -891.998050 -875.602964 -848.681668 -820.716093 -807.852650 -838.894706 -957.568096 -1140.730910 -1274.971403 -1308.492298 -1100.746802 -615.810394 -84.178442 252.624503 207.780194 -336.339006 -752.466499 -625.710353 -105.644323 387.076963 211.744265 -416.638614 -958.040936 -1631.899522 -2425.271686 -2827.276582 -2627.251089 -1773.945360 -234.670944 1331.650659 2665.006586 4592.882634 6983.394199 9367.709851 11873.358087 13569.028504 14063.322770 14393.602799 15456.568928 17172.987243 19084.727171 20775.426781 22472.459058 24317.114159 26350.105930 28282.900152 29574.529000 30483.098835 31739.040663 33301.335380 34824.375254 35696.109781 35633.676479 34747.616033 33346.893716 31868.043856 30556.421475 -0.013301 -0.015708 -0.024170 -0.041957 -0.069256 -0.108252 -0.162971 -0.239796 -0.347622 -0.498402 -0.707998 -0.997272 -1.393413 -1.931522 -2.656447 -3.624881 -4.907700 -6.592491 -8.786195 -11.617766 -15.240663 -19.835013 -25.609174 -32.800443 -41.674611 -52.524058 -65.664127 -81.427516 -100.156522 -122.193010 -147.866024 -177.476933 -211.281955 -249.471654 -292.146770 -339.289319 -390.727514 -446.092840 -504.767722 -565.823202 -627.948520 -689.379665 -747.843549 -800.549818 -844.284925 -875.693184 -891.855483 -891.263061 -875.125308 -848.603328 -820.793568 -805.447211 -826.501326 -909.726715 -1042.660949 -1149.145800 -1141.526660 -936.739840 -548.598486 -199.704937 -25.582144 -119.253345 -433.463312 -611.396480 -496.958502 -164.713537 132.295873 57.464119 -292.989164 -782.029062 -1430.021976 -2070.018484 -2390.790102 -2174.822484 -1440.201884 -322.111130 921.212933 2351.471123 4339.131649 6810.982332 9329.705092 11604.562419 13223.618654 14029.402164 14624.703829 15618.360832 17127.081558 18890.447486 20682.258878 22495.894441 24330.772020 26286.325867 28172.271150 29660.082428 30851.161067 31954.181458 33141.461175 34238.207051 34862.996130 34826.986373 34082.296900 32802.532155 31245.598608 29948.034003 29363.251709 9857.886828 14750.660558 20149.431455 20152.303979 21168.431798 19250.207272 25113.996095 31786.368561 30180.875904 28395.631947 31710.553667 37150.162619 36771.227620 39110.237200 41094.803490 49097.793305 42041.276145 39637.488981 40686.669925 35831.536901 25693.783825 16878.639888 17638.413758 14388.759645 32267.548994 28172.115499 21405.389502 29743.896343 32439.235498 47023.056591 32772.455056 36130.511777 46964.343540 39704.321769 46190.967396 44826.158898 45908.327078 41317.448503 39908.201112 40221.727985 21302.817138 24932.590151 19680.554204 24035.471133 24109.653457 37006.123425 24059.294390 22410.293392 13384.852899 38855.630270 43120.239198 46211.051367 30649.826720 42279.275172 45988.466417 41942.248319 51023.573866 40757.992840 40155.188485 38385.202778 25242.407985 14737.057857 979.071306 24281.760802 24329.654188 5226.912055 38966.123098 26774.651212 42208.725398 43666.236586 45170.951983 31460.335482 33659.299695 32023.736761 39028.924484 40161.324725 28436.649180 38376.897173 39137.528161 38898.666582 27080.740202 7781.319268 36960.361730 11912.259647 10834.207507 35981.856919 -13485.657645 28480.988003 37944.218186 37038.913472 13108.970795 21672.392714 18172.837767 50089.536266 30646.652465 42499.400899 47815.168968 8249.472971 37979.962431 37801.604369 9607.611267 33591.990450 31354.168677 15961.737323 31928.807157 15151.314071 5772.403585 7081.851964 27007.993964 29310.829713 35300.811263 24935.273816 50881.997412 13045.138757 40009.929251 40658.178592 42627.351810 41903.374232 42277.686622 47911.426981 11927.293198 22657.019649 15483.064693 20069.738383 12902.282936 31164.440776 18563.509987 9448.023317 18718.082373 39912.905247 45855.919178 16632.017026 28799.035799 17496.988579 48329.283863 71365.134617 39097.308395 41962.629893 41749.336879 41385.142063 52056.967771 15154.871844 61613.172570 -10214.050581 12884.497848 -364.912760 19976.697816 -4895.771053 39602.576134 64331.273574 12748.252986 18324.448913 39750.634536 45182.388941 54671.578155 24753.100210 24566.715357 40132.676903 21275.368692 12395.132714 -10178.872102 9628.597019 19786.596159 18492.924949 -18904.272764 15047.604551 16309.097406 18123.581582 37880.260779 36354.286359 32774.629769 19291.170411 13523.715947 34372.612296 49395.588839 27178.749535 29654.661016 41523.096065 14854.590733 35512.104969 35883.918019 21608.956291 14491.862938 23232.874643 9007.844431 -15243.177788 63597.431069 55604.155525 14699.879457 4623.313272 -17637.649693 5047.957400 15310.002421 25728.618193 12558.655975 21574.125870 60998.127203 35110.588415 14833.611433 19753.899028 35669.712581 -22179.308821 28680.681783 -3315.846929 23065.512430 23714.488667 23420.595951 16578.896727 36940.043434 32750.296795 13049.517389 12243.781883 16310.338908 11483.188307 17031.762337 24013.373398 83952.121908 984.790712 17072.671941 21114.107107 13985.170313 38596.170849 16605.184973 22345.418129 30005.446869 23393.524906 -578.201768 21864.565573 28166.536831 11421.975674 16879.208824 47793.624212 16711.252652 15668.249656 17080.948365 28015.938621 28527.611262 18351.564145 17452.990791 13814.185594 -15856.103590 19564.183241 14390.302399 16503.429691 19348.035781 17451.264907 12321.213478 14858.495906 14969.323529 18291.337516 -6294.333986 28071.993014 11149.347423 17317.493951 19655.403638 17262.710632 23827.852405 26765.043122 25958.736150 26711.237371 4756.288791 37962.071703 25994.608938 15759.377324 77297.982528 17296.900938 -10278.517440 27042.317952 7051.212823 -9215.306626 2594.890785 6987.235542 19821.979225 24831.938475 5258.559136 32074.202023 27410.320425 28208.387341 67388.921086 23287.759149 -9933.964020 14443.288487 12699.408240 5353.378307 13949.825895 22771.431234 22064.559955 2190.126264 7066.783453 6222.145857 25237.045991 25917.502611 26581.380249 20275.475183 26108.729485 31400.661511 21306.296071 28953.511427 21776.303909 24423.739540 21869.792532 1275.114492 24856.986017 -4786.027222 19454.895014 19145.841536 21398.312378 15541.980718 22138.591758 12534.166326 21947.971301 19071.877410 11964.652291 22179.110052 23042.198201 29902.074500 29998.406352 15747.261455 25356.000997 29582.924462 12426.342491 22184.339198 14139.348475 17401.428753 7340.000425 6572.043402 24740.384775 15893.245999 23883.615673 21463.425100 27636.282834 14471.663070 22380.842637 25179.070102 30276.916849 29652.450216 21425.161306 29738.046384 21921.179568 24171.645072 16162.323054 3666.164960 12655.477846 11972.599117 22627.469527 12322.910890 14603.847005 12186.735983 22651.809339 16368.047883 17631.350780 24483.152080 31004.905157 26669.692398 25249.207462 26352.626990 33224.442973 25351.746669 28697.313187 26727.963659 14532.489976 17371.732324 -1662.233822 12780.484938 17013.213054 18648.281451 20885.469955 19578.561045 19951.322331 16530.625510 21567.869977 23424.307436 18683.591462 22731.537877 18487.930209 32041.614545 23863.546473 30586.262069 29089.687974 26290.254251 13623.129118 15103.594204 13886.222380 11716.901762 17527.589979 18293.436839 14739.758713 19784.334560 15179.988629 21006.900831 24237.286210 25042.254890 23787.640890 31132.240237 25223.055484 21109.193759 20385.027738 25759.634893 23221.224467 23017.476889 13074.936552 17798.449384 14801.049110 14495.407739 19470.441189 13998.440192 17337.290062 19390.394840 18424.768153 19837.405599 20912.439957 21904.951100 22812.534992 25778.017081 26647.954129 29103.297020 29419.634385 24403.547672 23221.070992 33670.547776 13668.421138 15958.963861 13173.297404 12660.269870 17014.429178 16155.777141 18465.414276 15444.707171 19583.917329 17832.761042 21275.544291 16519.811124 21557.608358 24244.872612 25469.968244 28204.408772 25546.096433 21969.528548 31100.446757 34766.879194 9683.543995 12545.788396 12846.414059 15947.908513 14343.052043 14532.279721 15612.372378 17150.684422 14348.543947 19070.284622 22063.676190 23254.550721 21640.789549 24089.203388 22022.377013 24306.492558 23050.872957 27562.300869 31463.864909 31366.843458 9012.282668 12399.302264 16354.766752 7491.943227 8946.960561 13481.980751 13609.344232 15720.899051 18319.626216 20371.800718 15419.001130 19563.647436 24383.139633 18328.418614 24048.385756 24670.678481 32509.861796 24603.621599 32200.075788 32921.876598 10690.885475 7888.702456 10965.350858 8224.134288 10884.851118 13121.611910 15860.357750 15017.603564 19924.111090 15929.544534 21062.524707 22564.612837 22392.029347 23514.297783 23605.270848 22806.484688 26808.381901 26747.172461 33114.588059 33061.884040 8148.050428 16067.473906 15182.650373 11022.355951 12238.235735 15836.998112 12747.660757 20560.138754 11755.613190 19991.169400 19494.888856 19679.188133 25573.552919 25095.489409 23553.411184 24398.822648 24470.680369 24355.449023 27101.571128 27742.276137 11721.770487 9397.087155 7034.335847 7622.905995 8383.919888 11832.358038 11294.067990 13528.454986 17317.512125 19902.100905 20668.956027 21057.362552 22942.517839 22823.605949 23884.263423 29397.653048 24227.811802 24251.617485 32175.903619 32686.430705 8987.076672 9001.414915 7329.105004 7024.591722 9218.093946 11637.331327 10899.848116 15309.502645 12129.193484 22291.604172 23123.901776 18017.815748 15292.109440 19700.732237 21632.301640 23185.766574 24749.440482 24751.594916 31548.532697 28439.604193 7641.441968 10278.075685 3415.225252 7773.420958 9270.020256 10551.201463 13831.775728 12232.916099 13299.376808 17726.543390 11099.137056 14254.138660 24299.675445 22850.350999 24242.967323 23138.169966 24634.231541 24686.834412 23918.866591 23613.747974 1349.667289 8516.051034 5674.885711 11044.136363 7905.678357 7658.403850 12492.304644 12945.348232 15793.175033 16422.976732 9147.848491 17512.430724 16924.168096 25239.244385 24425.764934 24504.232524 24769.676327 24140.054574 22698.651445 31678.718133 1031.330271 3001.975674 72.350157 6783.959347 6904.898641 12992.450116 9719.514182 7926.299142 13018.217392 15820.448826 14150.028663 15822.757360 15061.823045 16416.367937 18732.548334 22408.422406 22271.744238 23985.128024 32661.296455 25361.044942 1384.290061 -1726.771928 305.777642 3809.031998 7128.430723 6267.108894 15478.884283 10527.700063 14260.317633 14925.483143 16258.094447 11071.320838 14155.673771 17922.652120 17869.627404 25042.357419 21337.329147 25008.629240 24653.292757 24397.654386 991.737373 475.724215 144.026632 3035.477398 3787.903164 12137.410123 9005.222435 10560.234642 15627.357929 16345.611301 15675.320707 17482.020882 19852.003286 17913.925867 19177.361282 22657.548564 21275.449399 24988.837863 30680.860920 22987.777676 223.674051 2407.849532 869.296417 1898.116458 3951.791177 9775.854268 6991.743912 13142.251569 12982.667486 14240.679564 15898.934246 18176.788235 16996.927374 18046.125954 19258.418604 18383.364500 20740.948508 25103.730847 30474.202715 31141.093980 -2386.037003 1135.026124 280.384261 2348.108958 3520.968524 8743.838065 7194.809354 7774.641518 15936.120526 17415.970466 18651.319208 19186.799185 15476.863329 20151.171319 20978.547230 21939.374439 25386.449716 22840.016587 19276.938906 19159.673792 -3057.025000 -1446.421212 149.465793 3009.938485 4322.614114 6627.066748 7617.651898 9253.520826 10322.065618 14661.317993 16882.377687 17438.803953 19003.999858 18778.257382 18189.097824 22247.736773 22549.979670 22