<VTKFile type="PolyData">
<PolyData>
<Piece NumberOfPoints="6715" NumberOfVerts="6715" NumberOfLines="0" NumberOfStrips="0" NumberOfPolys="0">
<PointData>
<DataArray type="Float64" Name="Pressure" format="ascii">
 27874.885210 26888.703234 25395.839168 23626.751819 21639.302175 19275.480573 16601.203940 14232.078840 12452.530525 11694.093026 11946.279341 13777.675645 17560.534082 21638.924555 25211.976628 26156.578491 25532.936106 32202.863265 46920.116568 46066.169715 25817.068281 13022.026068 7097.077482 7347.518204 9224.504963 10967.549871 12217.279268 13336.862082 14465.873611 15618.728276 16615.565909 17085.191297 17253.959435 17415.339835 17662.295873 17951.020735 18341.800577 18731.878482 19076.604155 19389.098180 19696.240158 19917.218505 19992.907264 19955.424035 19910.322693 19913.361645 19939.212626 19912.168246 19809.480308 19662.966314 19522.137111 19328.908389 18941.595772 18508.533138 17991.676815 17645.232588 17451.411802 17354.958687 17374.204283 17531.248171 17893.424067 18434.218492 18998.905675 19386.138323 19455.728123 19214.316954 19018.946384 18971.238961 19084.622812 19303.120452 19531.028455 19702.790185 19815.555470 19889.397855 20010.663397 20202.204360 20473.454334 20756.008059 20912.187556 20928.713349 20877.376297 20794.227531 20686.103490 20559.254323 20479.104623 20419.832585 20405.369540 20425.747410 20504.174071 20618.562564 20760.840899 20870.007809 20763.834128 20504.840992 20190.924547 19973.647124 19931.279440 20026.149377 20113.714599 20112.113630 20070.681260 20078.743199 20143.379839 20216.152018 20224.945668 20127.908736 19953.053022 19801.182966 19680.921377 19600.099185 19530.314383 19482.415730 19448.586111 19396.260448 19329.843143 19270.417182 19212.494766 19135.847145 19029.100528 18874.019739 18698.460256 18549.227628 18435.160280 18315.201746 18210.767813 18150.925276 18167.836256 18252.490677 18367.721730 18504.225650 18695.644652 18799.948047 18802.984661 18724.088515 18605.906702 18519.370120 18502.335136 18534.173025 18582.046455 18610.303847 18588.174704 18496.270896 18283.213091 18029.054195 17795.238561 17642.732604 17529.094184 17412.228685 17268.911611 17123.662855 17002.573327 16899.103792 16805.091404 16734.976014 16710.332498 16724.255137 16718.620208 16663.600469 16523.001659 16240.994295 15889.513859 15583.238760 15350.404680 15251.725417 15266.246238 15334.728056 15385.297282 15371.402140 15252.861301 15080.447577 14907.671379 14768.675218 14690.230291 14657.847953 14640.340445 14603.034471 14563.406369 14516.262087 14466.685589 14409.008264 14324.796854 14225.192263 14105.943245 13970.201122 13806.587254 13589.574571 13345.392108 13066.372403 12803.918497 12589.989358 12416.553458 12271.920511 12145.865108 12028.392640 11912.015539 11800.626090 11665.714717 11493.391318 11254.951990 10931.534757 10648.529031 29089.260142 28450.264541 27443.637187 26072.813024 24415.233865 22403.654478 20031.778355 17426.030139 15009.340894 13140.286587 12118.849397 11987.040428 12716.610306 14058.685731 15342.217375 16034.437925 15557.281545 13683.739124 14414.915214 15901.194441 13687.970053 10207.415089 6882.218913 6109.119696 7783.043303 10054.992713 11841.852181 13160.742369 14342.250220 15582.669698 16719.325379 17520.679160 17870.027843 17936.412072 17987.550828 18135.303994 18400.399916 18767.509571 19162.322165 19557.299278 19915.723044 20210.766765 20400.340287 20433.337438 20337.786425 20209.171664 20100.121402 20024.272229 19918.736167 19755.421067 19579.172055 19412.685687 19194.869598 18824.420542 18363.560795 17894.915891 17544.722786 17338.889096 17253.168170 17282.013319 17464.526196 17840.055574 18372.635675 18923.931822 19279.865073 19306.186463 19080.797344 18846.526710 18768.279040 18883.627392 19114.252342 19361.266596 19561.576578 19690.835720 19770.918324 19868.201105 20042.022255 20300.107207 20570.676492 20749.092507 20799.407169 20758.398520 20667.932131 20559.177014 20458.339788 20378.426506 20311.437307 20261.821524 20224.896568 20227.716279 20289.871047 20395.632571 20480.398216 20435.871922 20248.775616 20005.115949 19835.329994 19808.337887 19890.483512 19975.763394 19990.490155 19961.530225 19957.744017 20005.215437 20068.753524 20073.753853 19980.274223 19826.315201 19672.521180 19541.935431 19436.540342 19350.369744 19284.240294 19224.700310 19171.339034 19120.187102 19078.527119 19043.675058 18987.679231 18890.560611 18744.496988 18571.384747 18414.492631 18281.450586 18158.261696 18061.381184 18009.710728 18018.875234 18105.314404 18238.270829 18363.413990 18517.602576 18621.369911 18629.975805 18559.104667 18458.728478 18386.651762 18366.064450 18385.803054 18416.329951 18423.063298 18378.122367 18260.933144 18060.655200 17828.540825 17618.153796 17465.029803 17342.607142 17218.987072 17084.890408 16956.038652 16843.708702 16745.973347 16655.678591 16580.494187 16533.069924 16508.329345 16468.456347 16369.896315 16176.141280 15873.555295 15523.791950 15216.223615 15016.772126 14951.576810 14992.057147 15068.654077 15115.914053 15090.844834 14981.274952 14827.932228 14673.632833 14547.564297 14466.729740 14423.926092 14397.909076 14369.257790 14348.618954 14331.969500 14310.865587 14270.686826 14201.912544 14110.534035 13999.819690 13868.990274 13704.823003 13491.719768 13232.371600 12947.300023 12680.451401 12460.187741 12292.027989 12163.192861 12057.297811 11958.572985 11856.973933 11748.853805 11617.995933 11442.297633 11198.772931 10891.311947 10611.999423 10438.618377 29629.066097 29360.358763 28698.242237 27674.438457 26379.439649 24763.407678 22765.671474 20400.213840 17851.793236 15468.540492 13600.463936 12458.804365 12064.112417 12270.944622 12714.529697 12844.242962 12234.769864 10642.076974 8157.621116 6453.990872 5642.121175 4711.169353 3840.320555 3926.926168 5449.033225 7950.645602 10391.536335 12225.316218 13591.370717 14833.927805 16077.114535 17174.961712 17912.485506 18226.199846 18266.168173 18264.872361 18371.681738 18620.280806 18970.956279 19364.550896 19763.054041 20132.827302 20423.103329 20583.503246 20589.425411 20473.189581 20313.192981 20164.582029 20031.432777 19881.081228 19700.106933 19514.340508 19326.014192 19082.596254 18730.977185 18291.540621 17848.762766 17498.438614 17284.679300 17197.638240 17235.048943 17428.830520 17804.810090 18319.682442 18833.350597 19156.039314 19182.251287 18985.182945 18759.742290 18676.014000 18779.823695 19006.918450 19259.773086 19464.274771 19595.545521 19678.926676 19775.882173 19947.185334 20194.172927 20452.969418 20638.473163 20706.464295 20675.251081 20587.599614 20484.353583 20388.162564 20303.265299 20226.475907 20154.782771 20092.473186 20066.517404 20105.530435 20193.030181 20264.066822 20239.314440 20094.495507 19898.217166 19760.993027 19742.009639 19810.994059 19883.294935 19901.520514 19882.590169 19879.751465 19919.424099 19969.714444 19967.700718 19883.105995 19739.983713 19586.731198 19451.404060 19337.988477 19242.989301 19163.520169 19097.907653 19044.888064 19003.415217 18973.281705 18945.933226 18896.706250 18804.118889 18663.314436 18495.092605 18331.733989 18188.722564 18067.105559 17974.493238 17925.890893 17938.198596 18016.355652 18144.839691 18282.582849 18419.234741 18511.495110 18523.512043 18463.548796 18377.048272 18311.530273 18288.705692 18300.321611 18317.892094 18309.109978 18248.673358 18121.471777 17931.256575 17714.480223 17517.200533 17361.285766 17232.878037 17108.067957 16978.826549 16855.790606 16748.536793 16654.120668 16566.987870 16490.812455 16433.450891 16388.656986 16324.912331 16200.971546 15985.532005 15681.251212 15340.202607 15044.398745 14858.716302 14803.273242 14846.233874 14922.130996 14964.861837 14934.993900 14832.336928 14688.359852 14541.924522 14422.567275 14341.640377 14293.205421 14261.841423 14238.652674 14224.500966 14217.658638 14206.480926 14175.441386 14115.993055 14029.989495 13922.355538 13792.036930 13626.977446 13413.821300 13153.684550 12871.635311 12606.443976 12386.580439 12219.961608 12096.056239 11996.229970 11903.700299 11808.195582 11701.774319 11569.915220 11391.549890 11154.002132 10873.751623 10597.267555 10411.482344 10340.593836 10648.529031 10616.378145 10387.625090 9959.888016 9391.909653 8719.841624 8017.492539 7326.422439 6652.982733 6042.945681 5472.449218 4855.653583 4281.839880 3768.716182 3318.166191 2905.892792 2593.100765 2283.449067 2035.273946 1799.740204 1716.518735 1692.834193 1686.927505 1677.986506 1652.682889 1608.051511 1547.539468 1475.695185 1396.163479 1311.569460 1223.931312 1134.930659 1045.995363 958.334739 872.968856 790.751547 712.383170 638.415336 569.252985 505.158431 446.259689 392.563382 343.971260 300.298903 261.295095 226.660644 196.065672 169.164766 145.609657 125.059321 107.187593 91.688499 78.279608 66.703724 56.729268 48.149677 40.782095 34.465631 29.059371 24.440311 20.501319 17.149214 14.303003 11.892306 9.855960 8.140812 6.700677 5.495440 4.490288 3.655053 2.963633 2.393503 1.925276 1.542323 1.230430 0.977498 0.773269 0.609091 0.477694 0.373004 0.289971 0.224413 0.172891 0.132588 0.101207 0.076888 0.058132 0.043736 0.032739 0.024381 0.018059 0.013301 0.009738 0.007081 0.005107 0.003645 0.002561 0.001749 0.001121 0.000607 0.000367 10438.618377 10460.711332 10368.536571 10109.239429 9698.130207 9146.734043 8503.461261 7827.421553 7160.121313 6528.226113 5939.884475 5374.250685 4806.810146 4263.110489 3763.701191 3327.278642 2947.397992 2627.326790 2336.073948 2079.890802 1872.293573 1755.630925 1709.194830 1694.933475 1682.472970 1655.135016 1609.368433 1548.237438 1476.089522 1396.407543 1311.714960 1223.998780 1134.932871 1045.942457 958.235192 872.830024 790.580256 712.186126 638.199228 569.024368 504.923505 446.024073 392.331937 343.747987 300.086904 261.096606 226.477099 195.897803 169.012721 145.473116 124.937613 107.079800 91.593550 78.196352 66.630994 56.665925 48.094641 40.734366 34.424301 29.023626 24.409430 20.474668 17.126240 14.283226 11.875306 9.841374 8.128324 6.690011 5.486356 4.482575 3.648525 2.958129 2.388880 1.921409 1.539102 1.227758 0.975291 0.771455 0.607607 0.476485 0.372025 0.289181 0.223779 0.172385 0.132185 0.100888 0.076637 0.057936 0.043583 0.032621 0.024289 0.017989 0.013248 0.009697 0.007050 0.005085 0.003629 0.002550 0.001747 0.001142 0.000682 0.000408 0.000299 10340.593836 10357.547353 10344.505372 10223.228291 9965.391736 9558.684827 9020.557313 8394.442540 7734.342725 7084.930861 6469.982832 5890.506666 5331.539953 4782.437000 4253.772858 3766.805028 3337.330456 2967.428317 2646.919333 2360.667106 2108.483897 1909.329173 1784.154749 1725.275952 1702.541916 1685.290972 1655.793502 1609.267762 1547.941839 1475.801840 1396.189238 1311.575590 1223.932804 1134.931091 1045.995516 958.334796 872.968876 790.751554 712.383172 638.415337 569.252985 505.158431 446.259689 392.563382 343.971260 300.298903 261.295095 226.660644 196.065672 169.164766 145.609657 125.059321 107.187593 91.688499 78.279608 66.703724 56.729268 48.149677 40.782095 34.465631 29.059371 24.440311 20.501319 17.149214 14.303003 11.892306 9.855960 8.140812 6.700677 5.495440 4.490288 3.655053 2.963633 2.393503 1.925276 1.542323 1.230430 0.977498 0.773269 0.609091 0.477694 0.373004 0.289971 0.224413 0.172891 0.132588 0.101207 0.076888 0.058132 0.043736 0.032739 0.024381 0.018059 0.013301 0.009738 0.007081 0.005108 0.003646 0.002565 0.001762 0.001167 0.000734 0.000444 0.000304 0.000263 0.000367 0.000283 0.000172 0.000108 0.000069 0.000043 0.000026 0.000016 0.000009 0.000004 0.000002 0.000000 -0.000000 -0.000001 -0.000001 -0.000001 -0.000001 -0.000001 -0.000001 -0.000000 -0.000000 -0.000000 -0.000000 -0.000000 -0.000000 -0.000000 -0.000000 -0.000000 -0.000000 -0.000000 -0.000000 -0.000000 -0.000000 -0.000000 -0.000000 -0.000000 -0.000000 -0.000000 -0.000000 -0.000000 -0.000000 -0.000000 0.000000 -0.000000 0.000000 0.000000 0.000000 0.000000 0.000000 0.000000 0.000000 0.000000 0.000000 0.000000 0.000000 0.000000 0.000000 0.000000 0.000000 0.000000 0.000000 0.000000 0.000000 0.000000 0.000000 0.000000 0.000000 0.000000 -0.000000 0.000000 0.000000 0.000000 0.000000 0.000000 0.000000 0.000000 0.000000 0.000000 0.000000 0.000000 0.000000 0.000000 -0.000000 0.000000 0.000000 0.000000 0.000000 0.000000 0.000000 0.000000 0.000000 0.000000 0.000000 0.000000 0.000000 0.000000 0.000000 0.000000 -0.000000 0.000000 0.000000 -0.000000 0.000000 0.000000 0.000000 0.000000 -0.000000 -0.000000 -0.000000 -0.000000 -0.000000 -0.000000 -0.000000 -0.000000 -0.000000 -0.000000 -0.000000 -0.000000 -0.000000 -0.000000 -0.000000 -0.000000 -0.000000 -0.000000 -0.000000 -0.000000 -0.000000 -0.000000 -0.000000 -0.000000 -0.000000 -0.000000 -0.000000 -0.000000 -0.000000 -0.000000 -0.000000 -0.000000 -0.000000 -0.000000 -0.000000 -0.000000 -0.000000 -0.000000 -0.000001 -0.000001 -0.000002 -0.000002 -0.000003 -0.000005 -0.000007 -0.000010 -0.000014 -0.000020 -0.000028 -0.000039 -0.000055 -0.000078 -0.000109 -0.000151 -0.000210 -0.000291 -0.000401 -0.000551 -0.000754 -0.001029 -0.001399 -0.001896 -0.002559 -0.003442 -0.004614 -0.006163 -0.008203 -0.010880 -0.014379 -0.018936 -0.024849 -0.032494 -0.042341 -0.054977 -0.071132 -0.091709 -0.117820 -0.150830 -0.192405 -0.244571 -0.309777 -0.390977 -0.491709 -0.616196 -0.769454 -0.957414 -1.187068 -1.466649 -1.805920 -2.216791 -2.714998 -3.325297 -4.102819 -5.149974 -5.840729 0.000299 0.000283 0.000227 0.000156 0.000103 0.000067 0.000042 0.000026 0.000015 0.000008 0.000004 0.000002 0.000000 -0.000001 -0.000001 -0.000001 -0.000001 -0.000001 -0.000001 -0.000001 -0.000000 -0.000000 -0.000000 -0.000000 -0.000000 -0.000000 -0.000000 -0.000000 -0.000000 -0.000000 -0.000000 -0.000000 -0.000000 -0.000000 -0.000000 -0.000000 -0.000000 -0.000000 -0.000000 -0.000000 -0.000000 0.000000 0.000000 0.000000 -0.000000 0.000000 0.000000 0.000000 0.000000 0.000000 0.000000 0.000000 0.000000 0.000000 0.000000 0.000000 0.000000 0.000000 0.000000 0.000000 0.000000 0.000000 0.000000 0.000000 0.000000 0.000000 0.000000 0.000000 0.000000 0.000000 -0.000000 0.000000 -0.000000 0.000000 0.000000 -0.000000 0.000000 0.000000 0.000000 -0.000000 -0.000000 0.000000 0.000000 -0.000000 -0.000000 0.000000 0.000000 0.000000 -0.000000 0.000000 0.000000 0.000000 0.000000 -0.000000 0.000000 0.000000 0.000000 0.000000 -0.000000 -0.000000 0.000000 0.000000 0.000000 -0.000000 0.000000 0.000000 0.000000 0.000000 -0.000000 -0.000000 -0.000000 -0.000000 -0.000000 -0.000000 -0.000000 -0.000000 -0.000000 -0.000000 -0.000000 -0.000000 -0.000000 -0.000000 -0.000000 -0.000000 -0.000000 -0.000000 -0.000000 -0.000000 -0.000000 -0.000000 -0.000000 -0.000000 -0.000000 -0.000000 -0.000000 -0.000000 -0.000000 -0.000000 -0.000000 -0.000000 -0.000000 -0.000000 -0.000000 -0.000000 -0.000000 -0.000001 -0.000001 -0.000002 -0.000002 -0.000003 -0.000005 -0.000007 -0.000010 -0.000014 -0.000019 -0.000028 -0.000039 -0.000055 -0.000077 -0.000108 -0.000151 -0.000209 -0.000290 -0.000399 -0.000549 -0.000751 -0.001025 -0.001394 -0.001888 -0.002549 -0.003430 -0.004597 -0.006141 -0.008175 -0.010843 -0.014331 -0.018875 -0.024771 -0.032395 -0.042215 -0.054818 -0.070932 -0.091459 -0.117508 -0.150443 -0.191926 -0.243980 -0.309053 -0.390092 -0.490632 -0.614890 -0.767874 -0.955501 -1.184731 -1.463703 -1.801889 -2.210250 -2.701342 -3.289057 -3.984202 -4.766800 -5.347150 -5.553243 0.000263 0.000262 0.000243 0.000198 0.000146 0.000101 0.000066 0.000042 0.000026 0.000015 0.000009 0.000004 0.000002 0.000000 -0.000000 -0.000001 -0.000001 -0.000001 -0.000001 -0.000001 -0.000001 -0.000000 -0.000000 -0.000000 -0.000000 -0.000000 -0.000000 -0.000000 -0.000000 -0.000000 -0.000000 -0.000000 -0.000000 -0.000000 -0.000000 -0.000000 -0.000000 -0.000000 -0.000000 -0.000000 -0.000000 -0.000000 0.000000 0.000000 0.000000 0.000000 0.000000 0.000000 0.000000 0.000000 0.000000 0.000000 0.000000 0.000000 0.000000 0.000000 0.000000 0.000000 0.000000 0.000000 0.000000 0.000000 0.000000 0.000000 0.000000 0.000000 0.000000 0.000000 0.000000 0.000000 -0.000000 0.000000 0.000000 0.000000 0.000000 0.000000 0.000000 0.000000 0.000000 0.000000 0.000000 -0.000000 0.000000 0.000000 -0.000000 0.000000 0.000000 0.000000 0.000000 0.000000 0.000000 0.000000 0.000000 0.000000 -0.000000 0.000000 0.000000 0.000000 0.000000 -0.000000 -0.000000 0.000000 0.000000 0.000000 0.000000 0.000000 0.000000 0.000000 -0.000000 -0.000000 -0.000000 -0.000000 -0.000000 -0.000000 -0.000000 -0.000000 -0.000000 -0.000000 -0.000000 -0.000000 -0.000000 -0.000000 -0.000000 -0.000000 -0.000000 -0.000000 -0.000000 -0.000000 -0.000000 -0.000000 -0.000000 -0.000000 -0.000000 -0.000000 -0.000000 -0.000000 -0.000000 -0.000000 -0.000000 -0.000000 -0.000000 -0.000000 -0.000000 -0.000000 -0.000000 -0.000000 -0.000001 -0.000001 -0.000002 -0.000002 -0.000003 -0.000005 -0.000007 -0.000010 -0.000014 -0.000020 -0.000028 -0.000039 -0.000055 -0.000078 -0.000109 -0.000151 -0.000210 -0.000291 -0.000401 -0.000551 -0.000754 -0.001029 -0.001399 -0.001896 -0.002559 -0.003442 -0.004614 -0.006163 -0.008203 -0.010880 -0.014379 -0.018936 -0.024849 -0.032494 -0.042341 -0.054977 -0.071132 -0.091709 -0.117820 -0.150830 -0.192405 -0.244571 -0.309777 -0.390977 -0.491708 -0.616192 -0.769440 -0.957367 -1.186913 -1.466138 -1.804242 -2.211276 -2.696866 -3.265819 -3.904975 -4.552001 -5.087655 -5.344276 -5.396341 -5.840729 -7.128117 -9.621013 -12.238961 -15.076447 -18.235878 -21.779804 -25.763039 -30.238935 -35.260984 -40.882867 -47.157976 -54.138696 -61.875555 -70.416255 -79.804621 -90.079472 -101.273442 -113.411763 -126.511046 -140.578077 -155.608666 -171.586583 -188.482617 -206.253798 -224.842833 -244.177793 -264.172098 -284.724830 -305.721401 -327.034547 -348.525645 -370.046248 -391.439801 -412.543479 -433.190220 -453.211161 -472.438790 -490.710987 -507.875392 -523.791855 -538.327615 -551.337391 -562.625611 -571.910402 -578.800384 -582.667195 -582.556352 -576.250113 -561.270085 -532.787890 -489.383120 -442.301862 -384.142189 -328.662119 -293.216509 -283.133545 -310.283624 -352.184843 -412.188964 -560.598102 -712.092429 -789.607601 -826.917633 -856.728929 -901.607931 -985.809936 -1128.903984 -1182.988872 -1094.401589 -977.947002 -880.149738 -778.876990 -684.992744 -549.627187 -364.322483 -148.053796 73.488541 499.159358 1404.451169 2632.649243 3955.699278 5374.084019 7128.167949 8476.018661 9817.247064 11089.954159 12605.371917 14229.228866 15684.026567 17235.536463 18358.799789 19318.956982 20329.917693 21478.371125 22631.489668 23798.988045 24991.660060 25951.139510 27058.099964 27874.885210 -5.553243 -6.148223 -7.580107 -9.766528 -12.267452 -15.073345 -18.221813 -21.760811 -25.740869 -30.214092 -35.233611 -40.853024 -47.125718 -54.104112 -61.838772 -70.377448 -79.764015 -90.037348 -101.230135 -113.367665 -126.466603 -140.533789 -155.565083 -171.544298 -188.442259 -206.216024 -224.808314 -244.147203 -264.146097 -284.704050 -305.706426 -327.025905 -348.523789 -370.051557 -391.452569 -412.563909 -433.218408 -453.247061 -472.482168 -490.761391 -507.932216 -523.854649 -538.396842 -551.415368 -562.716316 -572.015220 -578.924105 -582.855801 -582.806253 -576.890310 -562.229723 -535.884591 -496.371451 -446.835148 -389.900419 -335.220701 -295.258060 -280.789732 -295.357078 -338.402745 -419.199208 -541.302798 -667.655956 -759.087815 -811.303717 -854.888536 -925.711039 -1033.594626 -1152.872022 -1209.197081 -1163.310095 -1051.816872 -929.432587 -809.334677 -681.592926 -530.402845 -362.286815 -174.493953 87.234356 554.808249 1362.000043 2502.010886 3874.140616 5410.763891 7050.926408 8575.878268 10050.569379 11492.338658 13087.771752 14729.400001 16279.438885 17812.786924 19047.573551 20272.174945 21478.570236 22640.521847 23755.805441 24838.584482 25820.613283 26744.429920 27717.656586 28514.247957 29089.260142 -5.396341 -5.620795 -6.384518 -7.873779 -9.889964 -12.318939 -15.100888 -18.243316 -21.782069 -25.763728 -30.239144 -35.261048 -40.882887 -47.157981 -54.138698 -61.875555 -70.416255 -79.804621 -90.079472 -101.273442 -113.411763 -126.511046 -140.578077 -155.608666 -171.586583 -188.482617 -206.253798 -224.842833 -244.177793 -264.172098 -284.724830 -305.721401 -327.034547 -348.525645 -370.046248 -391.439801 -412.543479 -433.190220 -453.211161 -472.438791 -490.710992 -507.875422 -523.792002 -538.328117 -551.338428 -562.626135 -571.903627 -578.785320 -582.686593 -582.558687 -576.661137 -562.183135 -536.401451 -498.003982 -448.296532 -391.620513 -336.511927 -294.029227 -274.552149 -285.171595 -331.310097 -415.797894 -530.308156 -646.360029 -737.790571 -800.263761 -857.661761 -941.055935 -1055.329798 -1167.139585 -1220.781218 -1186.344147 -1086.337451 -960.694234 -827.136222 -684.654875 -528.051129 -358.158154 -162.374091 119.375847 597.332723 1375.644345 2479.583127 3851.851507 5403.569190 7027.732704 8622.201156 10172.537683 11726.509246 13341.962597 14994.007439 16613.219553 18136.101763 19508.794332 20791.193110 22007.592105 23168.874698 24271.934710 25307.605925 26265.771846 27167.341080 28030.424495 28815.821431 29382.527517 29629.066097 9522.350034 7433.254659 5383.965370 9594.321760 11892.699251 10135.714568 14629.987134 12647.158381 13211.880235 14894.482690 17994.676509 11784.877019 10841.217177 18914.255425 18898.359879 18065.946127 19894.606367 24936.003334 24506.354575 26576.770923 9987.083499 7947.768044 10614.009653 5945.396697 13906.123265 7484.378406 10436.730012 9229.823269 11549.036313 12197.702805 9254.012050 18090.635122 17053.612145 15458.227424 13991.555520 22758.889089 20366.978538 18124.390022 24890.924604 22540.616733 8589.709764 13504.590255 9390.518548 11036.317904 5754.513283 12927.315692 7459.605690 9782.104479 11609.714905 10077.607919 15271.375548 17034.404445 8292.823820 21145.246042 17164.480240 23875.758842 19928.912081 23012.658778 25334.951776 20729.127086 6211.176919 10245.133067 150066.050874 11728.963512 14605.458389 6163.306175 11977.633051 12906.918465 15806.452971 17224.489824 22748.412087 12585.341232 12903.257129 13322.672209 14069.651573 19631.234595 11184.515492 21436.208141 17735.385631 20756.928726 7699.720831 8232.183387 41165.097697 12128.089244 8162.110425 12867.402749 54835.568793 150931.136437 9717.463011 15560.890302 11464.987007 7497.085854 16324.201893 16631.256055 8160.768008 21938.518977 18525.484092 7055.251497 18201.480011 16399.184694 13102.517971 12004.356111 6929.534072 9229.121136 43325.059386 7318.062141 2568.261874 6936.875913 14534.032504 10794.344858 11701.947999 22980.202106 21730.048213 7514.089757 8938.468030 15122.151348 19735.850453 13138.771366 11837.532787 19329.313271 7299.718977 15546.924538 10073.462822 3606.939723 11263.645389 73198.381213 4255.775584 11170.993301 11132.325409 22919.138508 28837.231680 6993.985717 5412.471798 12479.155577 28511.968929 19887.618430 11638.799445 17883.977161 13806.626823 14588.610678 149607.395278 8759.291925 76872.707611 4136.734460 6923.558222 144455.110044 11542.020460 6796.328666 8990.026282 44660.824512 9429.146525 8641.842224 14305.478480 38536.116220 26620.717446 10164.882977 27677.894023 11658.036261 19612.317079 13063.629427 3605.671642 4541.635049 2725.461445 7820.211807 135854.032162 9671.620091 8852.185235 8234.668704 10981.458945 6309.585185 133091.857108 16249.425116 12440.808890 23809.822467 11575.326248 35196.570816 5780.189329 12182.377144 11014.944007 15714.261671 9011.155357 8735.323698 6929.895452 15829.077940 10795.713228 135643.270550 72670.357182 44472.454144 2204.890093 2933.759740 57493.166375 126752.479411 8365.313202 47572.752253 5938.265308 28986.461362 70122.423716 13108.257367 9787.984987 32744.324707 28894.163310 84899.334406 63170.586050 8654.874609 9693.116078 7815.867759 11532.195136 4995.178672 151189.214398 57746.010138 13660.611864 4987.018189 10178.697011 14259.954545 8211.845329 38352.921180 11811.876460 4710.797647 10070.676797 6182.786953 9600.905145 107485.469456 131175.675875 10926.043225 50300.116898 6790.484166 4201.644706 4536.447310 13086.833633 10933.910010 6098.210617 85520.823966 7450.262608 6704.147775 10919.755646 5618.574327 20729.647675 7317.288503 8874.473274 65618.286228 104866.539188 13832.452650 5397.117142 7516.487088 6690.773176 149490.206769 6064.296862 4758.500404 4666.974846 7710.482464 4557.038233 12677.379144 8134.738405 5313.877103 14658.286514 8096.753985 59512.823477 12486.611392 16934.872717 16512.038325 3264.719359 6947.027759 8627.810992 4119.459843 5161.333519 7970.740157 4186.268710 10790.222999 3785.563485 3144.427420 6639.928167 5255.288385 7024.474809 17484.100207 4010.562448 7324.388124 15026.594178 17094.048440 16189.353719 24160.014653 3229.812878 8709.310580 8081.787248 7894.369494 10075.237204 5870.268135 13546.144282 9101.868915 7522.863506 4616.184727 11302.816126 10892.106296 11816.084708 12837.050719 8570.836050 16060.720523 15254.490018 16189.118773 14227.077490 15527.953224 5595.002756 6863.120460 4993.113702 121131.812796 6297.229938 11076.911260 10003.209572 9806.992036 8827.476976 10268.865258 12315.666231 11972.817829 102649.858203 11574.134713 14045.699863 15513.908488 15930.873051 10425.726153 10645.101902 14125.813522 9674.816576 13500.918894 12807.305232 12650.089060 5724.713390 86201.404162 9502.298733 7094.688215 9953.220958 11422.721682 17518.885808 13672.744968 15711.923929 14415.177151 14252.631384 17305.690226 11828.706615 27507.527539 126935.722499 146408.260525 11355.552487 4275.801655 6965.924152 8146.244895 8511.558039 10167.437215 13669.370865 13676.079786 13275.396594 12021.814485 11157.258329 16963.424903 11043.280427 17389.091322 12348.922555 16660.883184 10080.962246 14574.404031 15920.320838 69530.663490 11795.196419 11723.321528 2989.507793 11307.648971 12760.291301 17534.024081 16367.420974 16649.417406 13409.533850 11393.883251 13585.697404 16175.027651 14581.734761 14964.357084 12047.183469 15956.170840 14671.462762 17874.540950 15344.146469 12843.160453 12041.271017 8561.460280 9239.809044 11594.257531 13231.595381 9822.227382 14234.591138 9791.578214 9322.628800 13099.383194 15730.513513 14194.669885 18786.190609 13795.258783 16474.476256 16389.511632 14715.284717 9333.019590 146701.561532 9311.552658 9189.861462 11998.106289 10357.874139 11328.026682 10652.264242 10375.157491 15165.991601 13656.990804 10886.669939 10479.378056 17271.859761 12900.752156 14657.011262 14613.262275 17120.772903 18208.576524 18295.155203 19051.018569 15739.521962 6764.964638 11676.662260 10112.302060 12716.790262 7215.198580 8855.675611 9919.550243 11338.896177 11246.768237 12574.235534 10589.851601 12619.630859 13755.427891 11774.783601 18142.810113 12417.860856 18717.041322 19027.346935 15817.546087 11772.716638 7043.302215 11248.480924 6844.703159 7361.096510 8219.591982 9808.940028 7607.536671 8690.311176 10623.654836 7359.818855 8932.109358 14529.450145 12504.445611 12732.090535 17980.566075 14883.840380 19233.481802 17074.390621 19274.326087 9312.312246 18017.014183 9682.683327 7667.849669 10708.065762 6486.945793 7304.876999 6566.840306 10547.160988 12344.967349 12616.735723 10254.663587 10214.465250 8621.769238 18301.272779 11451.113204 16664.791237 16768.105415 13673.824277 17093.152608 15845.326069 10613.554177 8337.615524 8966.051994 8273.671921 7720.147609 10148.273870 9471.665788 11972.438708 8708.610286 12375.036404 9997.401300 13353.726180 13627.389850 15009.044790 19629.016951 16317.358823 19166.858338 18290.694427 18970.471440 13993.828540 16818.178850 7700.488240 12807.776655 11963.086214 9090.082255 11996.833739 10750.132037 9201.703900 14006.662040 8291.125576 12750.537051 12462.494720 14004.608179 17102.512862 15873.900699 16378.852559 14213.899949 16190.201980 15953.359622 17792.950976 17247.296742 13754.429209 11098.646841 7386.650389 8853.685244 6098.857320 12437.689619 10786.895644 10850.459903 13831.711574 14439.088116 14193.144823 14859.321282 14455.118794 15747.007237 17588.502433 18351.721669 17022.078209 19073.420938 15349.551175 12621.937296 7933.738892 6302.066352 8671.414606 6792.958167 6441.433660 6902.428102 9986.707326 12990.156048 12411.347698 15778.851475 14337.874351 14040.693724 10923.808714 13525.885029 14404.109969 19476.188755 19156.043339 17238.052505 16745.489490 17646.460745 5534.635840 7270.907856 3924.077362 9737.920458 10309.032848 10411.497817 10574.504220 8980.448253 9100.631129 14573.024325 9778.098230 11078.625715 17166.052840 17148.434878 16341.162332 16161.193479 15252.416048 17032.335686 16318.884758 18705.241884 1139.778697 6360.315276 4533.634372 7127.659467 7404.776413 8722.543672 7610.828755 9330.905779 9791.981789 12250.488234 9296.826579 15636.716761 11296.799711 18738.628617 17855.372638 16390.939637 15511.660927 18480.337077 15904.487027 16221.838263 1775.613839 2593.175678 1898.620846 5336.378063 3648.790884 7756.005252 7863.606277 8131.043198 8107.854435 12684.479085 11394.104763 10416.191318 12046.237120 13125.129227 15274.858344 17997.421945 15526.881179 17611.505787 16672.616884 17748.650694 1678.200612 3163.169768 1223.695299 2625.383549 6069.304962 4367.531865 9633.238471 5969.549011 8439.092966 8796.044497 8713.631191 7847.599450 10483.625104 14481.371633 13428.519018 17314.616440 15425.812652 18308.818549 15120.765314 19378.979788 1764.658503 1723.897996 2601.477605 2094.443090 2668.784991 7787.595925 5943.977189 6650.037611 8765.109732 10190.478946 9335.076712 11279.226117 17298.739641 12134.341752 14840.355503 17338.690803 15637.811024 14729.689954 18332.590329 14974.835796 1596.740781 1776.256123 1883.417658 1281.079626 3593.091929 6808.270057 5067.981274 8169.055386 9116.582756 8220.151487 9355.239140 11207.450028 9411.359327 11252.774833 14526.856052 14359.085000 13977.637433 17538.887126 17621.743469 17474.272465 1942.295142 1194.138212 2721.677527 2080.091224 3779.407708 5658.167886 5259.398067 5523.955011 10169.101148 9952.984188 12573.266153 13948.275906 9280.907955 15624.055823 16999.454430 18909.925824 19369.665643 17395.252710 14529.448942 12698.251728 1015.173838 1953.728097 1622.910388 2794.248179 4543.831995 3870.713687 4957.195049 5239.547856 5829.764756 7602.322236 10417.475836 11747.827864 14010.464236 11700.684441 12788.848484 17450.07