<VTKFile type="PolyData">
<PolyData>
<Piece NumberOfPoints="6715" NumberOfVerts="6715" NumberOfLines="0" NumberOfStrips="0" NumberOfPolys="0">
<PointData>
<DataArray type="Float64" Name="Pressure" format="ascii">
 23054.086245 21909.481887 20871.717424 20211.570863 19671.082271 19373.686859 19300.480705 19541.240092 20066.254827 21137.105582 23300.422593 26450.834487 28765.826750 28570.325157 24408.537855 19467.988232 14596.564678 11058.504942 10964.383608 13410.852966 16495.237242 18788.085393 20426.719344 20547.148820 20206.625689 20261.491622 20173.867332 20134.440776 20234.119887 20807.648680 21281.843664 21296.958549 21608.471407 22191.206600 21825.289870 20922.544434 20826.714001 21588.745209 22691.778174 23525.654214 23693.574867 23317.866253 22785.127391 22550.310171 22589.280780 22625.277749 22539.271213 22647.089074 23124.334657 23696.371927 23921.418809 24128.419105 24237.798608 24108.762456 23979.213194 24576.386193 26270.779317 27659.723401 27722.671693 27247.992896 27295.544599 27766.461476 28123.078610 28439.461011 29065.104909 29580.795709 29514.082457 29145.258547 29226.676050 29730.998487 30076.757944 29944.974652 29696.935537 29465.638002 29366.627843 29450.652425 29531.179388 29545.342048 29558.289311 29904.280857 30654.993362 31642.301854 33168.828781 33872.443953 32357.173903 29064.614020 26443.536305 26127.805610 26626.500482 26816.498610 26486.660782 26299.376441 26307.410994 26480.895497 26936.928646 27330.727369 27536.790948 27847.907162 28208.819998 28710.998017 28976.334154 28819.304107 28438.152488 28345.081075 28480.031244 28518.228227 28182.275340 27577.880818 26984.127539 26362.266260 25836.299274 25363.235452 25172.492029 25229.401638 25626.766862 26368.997692 26882.852462 26838.283345 26118.353074 25567.067612 25287.171824 25276.093366 25230.649370 25069.743558 24900.095258 24609.144426 24175.441533 23583.103518 22992.914533 22891.101714 23323.970168 24065.979082 24799.434233 25242.271022 25435.786485 25581.489739 25930.655152 26352.852754 26685.575449 26692.394130 26215.274677 25414.452512 24559.773533 23941.543084 23857.641484 24209.715626 24687.060527 24815.380265 24604.658495 24379.382535 24181.736382 23960.741498 23685.018450 23498.559216 23399.371017 23297.987914 23131.237566 23037.118641 22960.145141 22771.868527 22465.334915 22157.360167 21888.566949 21717.892471 21702.706278 21751.664335 21549.389235 21013.636602 20367.482883 19973.203080 19898.138098 19992.991288 20302.526555 20846.667158 21385.631096 21602.404274 21521.719494 21407.029590 21343.996186 21197.231160 20848.097962 20365.842474 20061.399564 20042.526516 20338.600215 20737.149663 21106.733411 21398.493816 21636.111023 21812.259869 21825.985217 21624.507338 21210.529563 20770.181546 20499.836193 20567.613934 20753.015650 20752.584433 20300.822490 18924.401253 17499.345721 27067.587397 25364.926012 24189.783344 23537.197541 22917.857001 22345.266024 22094.863566 22142.272293 22397.807189 22699.845484 23368.766727 24812.374757 27010.771564 28954.228275 28850.763713 25480.881483 21111.600870 17040.973841 14384.035547 14304.594493 16062.829664 18353.515518 20547.709222 22006.726864 22435.046475 22351.290747 22269.698909 22338.100283 22263.369694 22218.554301 22430.348582 22546.667476 22381.300792 22490.827235 22890.038793 22765.480796 22185.958710 22032.207545 22566.806854 23471.210315 24227.503146 24531.044767 24336.035214 23904.818848 23699.059077 23798.589116 23967.099645 24244.853514 24555.511602 24866.722307 25051.024906 24996.505628 25049.657331 25169.168167 25045.571311 24927.573108 25518.689264 26879.143730 27843.721311 27752.904903 27302.837059 27372.200705 27910.430664 28325.772636 28585.499979 29010.018910 29438.110330 29530.606512 29441.331883 29619.928965 29979.370631 30146.590594 30036.395963 29887.578868 29828.771464 29787.022308 29847.770013 29913.517098 29714.909854 29422.262406 29353.657891 29675.952834 30473.026677 31760.071874 32581.061051 31373.417652 28446.639724 25944.894746 25283.955542 25915.315714 26564.331684 26847.691848 26813.699590 26817.890494 27088.666618 27480.918361 27695.980942 27713.882789 27827.875923 28201.345649 28682.117703 28864.508997 28594.354856 28165.528648 27962.422159 28043.957958 28038.096311 27706.199230 27110.200710 26519.672630 25975.725154 25473.594196 25133.473678 25023.194828 25143.603809 25481.633068 25974.262918 26330.504026 26315.998868 25973.441034 25537.975592 25243.517817 25074.890701 24821.527318 24528.567072 24280.312099 24011.148323 23640.699499 23214.777034 22917.809448 22921.957343 23308.886418 23913.545860 24547.492084 25035.009541 25290.328195 25460.919666 25680.002665 25949.890410 26166.191891 26140.299207 25754.428471 25045.402641 24234.763174 23651.248420 23521.683398 23752.756915 24033.668787 24042.943682 23775.828867 23487.319003 23246.053117 22981.953863 22738.221582 22574.290559 22473.805126 22375.798952 22277.608377 22227.782684 22201.177868 22089.576714 21866.201122 21581.280901 21278.163191 21109.031654 21136.338940 21211.773806 21103.087044 20686.752349 20139.259644 19723.774402 19561.487105 19564.558194 19740.373525 20118.248883 20496.633678 20699.039421 20760.133045 20735.399840 20681.844439 20516.387834 20203.186977 19896.190507 19756.492630 19825.374362 20046.707791 20318.261856 20572.493663 20781.338666 20954.986795 21028.309870 20974.615337 20767.580663 20468.177229 20156.583421 19972.322135 19953.690973 19989.416680 19816.855776 19219.942415 18065.141685 16800.216191 15914.889372 29050.812985 28239.235754 26766.072916 25532.983824 24818.519301 24284.008955 23810.991376 23565.996403 23665.049498 23995.927118 24363.674630 24793.835203 25580.423996 26909.973648 28239.415736 28127.347114 25607.576627 21655.421456 17920.609029 15731.127278 15512.286509 16810.941936 18845.472944 20884.665413 22340.396094 23062.697778 23348.138163 23518.033174 23551.668313 23354.389460 23220.888201 23279.057676 23219.062059 23014.382760 23068.327295 23317.339135 23237.985705 22863.314381 22710.408502 23042.875536 23769.256245 24488.666187 24798.383154 24644.875084 24371.220612 24290.749331 24433.359628 24767.244892 25267.024239 25658.658664 25759.879683 25672.072800 25565.305409 25558.590050 25615.706717 25599.989531 25648.904288 26180.829905 27164.924755 27845.990342 27690.594268 27274.749571 27408.831300 27948.200012 28306.006243 28517.845225 28851.546749 29217.954345 29419.097394 29534.407863 29723.053232 29899.473764 29952.870876 29941.242788 29958.883302 30020.519444 30083.465392 30188.173090 30178.107277 29825.094106 29357.502873 29116.528919 29256.397632 29863.553200 30896.366494 31553.893302 30572.753684 28118.126190 25909.437409 25245.118638 25857.908171 26625.640828 27026.098622 27153.998085 27301.488666 27553.757741 27817.094878 27927.671780 27856.912020 27860.418443 28166.764988 28567.826114 28698.577079 28415.977496 27952.061295 27698.792844 27753.945770 27743.425440 27386.217798 26825.280759 26270.160842 25760.725865 25311.661020 25049.187365 25019.760469 25174.498165 25441.348028 25762.049026 26021.828331 26054.344153 25867.192010 25577.442432 25296.464114 24947.389330 24545.420314 24184.340669 23891.429867 23621.017697 23319.619588 23031.151309 22909.604021 23023.473885 23371.198001 23877.085478 24425.058913 24885.605002 25187.167092 25398.932799 25580.362979 25725.057244 25832.967967 25786.360869 25473.835768 24818.576915 24053.142538 23514.578887 23353.397479 23465.458788 23595.865519 23519.275651 23238.224591 22932.735748 22678.868657 22425.489934 22184.939356 22024.265805 21942.744830 21856.921944 21776.685106 21725.617868 21684.920953 21596.789274 21420.564780 21158.297702 20884.286095 20734.071061 20772.036374 20864.522339 20796.723550 20459.247996 19985.915208 19589.781895 19380.068375 19337.525794 19431.095251 19667.098433 19945.360629 20147.855274 20261.793567 20306.357616 20265.791253 20091.365300 19813.943128 19578.179875 19515.398609 19628.670517 19799.238585 19978.000739 20166.760160 20366.369524 20528.839970 20570.700200 20487.550064 20305.832736 20064.150433 19841.680360 19718.746929 19663.140462 19588.939085 19335.340485 18705.712204 17668.397290 16469.157189 15611.711877 15275.276240 17499.345721 18325.198409 18675.168159 18186.717132 17543.000879 17095.843290 16752.926809 16195.134134 15339.616221 14514.941447 13734.660773 12585.896414 11193.242518 9733.982822 8622.210675 7680.797725 6113.983456 4255.121886 3201.091298 2383.293057 1887.458887 1333.759817 959.802768 752.678598 639.820967 581.317678 552.744534 537.401461 524.612448 508.286643 485.667978 456.293864 421.133008 381.900019 340.548948 298.933717 258.610902 220.753253 186.141150 155.202513 128.077348 104.689660 84.815538 68.141283 54.309184 42.951007 33.710668 26.258161 20.296919 15.566542 11.842493 8.933956 6.680731 4.949732 3.631443 2.636551 1.892855 1.342505 0.939560 0.647883 0.439318 0.292154 0.189823 0.119821 0.072823 0.041955 0.022217 0.010020 0.002827 -0.001129 -0.003055 -0.003759 -0.003772 -0.003428 -0.002934 -0.002409 -0.001918 -0.001490 -0.001134 -0.000848 -0.000624 -0.000453 -0.000325 -0.000230 -0.000161 -0.000112 -0.000076 -0.000052 -0.000035 -0.000023 -0.000015 -0.000010 -0.000007 -0.000004 -0.000003 -0.000002 -0.000001 -0.000001 -0.000000 -0.000000 -0.000000 15914.889372 16521.876755 17139.155134 17352.405666 17050.885313 16523.584935 16074.387703 15648.985334 15025.530990 14228.539231 13466.128271 12685.404118 11670.404281 10378.690021 9040.640654 7960.782823 6961.407085 5657.581570 4240.654652 3131.659161 2324.267934 1728.433070 1259.913291 939.449009 745.786292 636.628551 579.805224 552.147140 537.317726 524.803841 508.595995 485.990623 456.565914 421.322139 381.996876 340.559392 298.872289 258.495788 220.602770 185.971596 155.027096 127.905903 104.528863 84.669393 68.011702 54.196563 42.854724 33.629482 26.190511 20.241133 15.520971 11.805591 8.904326 6.657137 4.931100 3.616855 2.625230 1.884150 1.335875 0.934562 0.644154 0.436567 0.290148 0.188378 0.118795 0.072105 0.041461 0.021883 0.009799 0.002685 -0.001218 -0.003108 -0.003789 -0.003787 -0.003434 -0.002935 -0.002408 -0.001915 -0.001486 -0.001130 -0.000845 -0.000621 -0.000451 -0.000323 -0.000229 -0.000160 -0.000111 -0.000076 -0.000052 -0.000035 -0.000023 -0.000015 -0.000010 -0.000006 -0.000004 -0.000003 -0.000002 -0.000001 -0.000001 -0.000000 -0.000000 -0.000000 -0.000000 15275.276240 15510.553058 15999.509117 16505.198611 16707.596580 16487.394325 16022.441009 15549.853951 15059.795793 14430.634007 13680.171845 12903.653303 12087.002293 11110.841407 9934.966593 8716.266193 7616.272334 6550.383216 5360.191782 4137.503414 3087.543130 2277.421701 1673.484949 1233.692592 934.535684 746.746790 638.121922 580.843943 552.628280 537.374614 524.606091 508.285229 485.667714 456.293818 421.133003 381.900022 340.548950 298.933718 258.610903 220.753253 186.141150 155.202513 128.077348 104.689660 84.815538 68.141283 54.309184 42.951007 33.710668 26.258161 20.296919 15.566542 11.842493 8.933956 6.680731 4.949732 3.631443 2.636551 1.892855 1.342505 0.939560 0.647883 0.439318 0.292154 0.189823 0.119821 0.072823 0.041955 0.022217 0.010020 0.002827 -0.001129 -0.003055 -0.003759 -0.003772 -0.003428 -0.002934 -0.002409 -0.001918 -0.001490 -0.001134 -0.000848 -0.000624 -0.000453 -0.000325 -0.000230 -0.000161 -0.000112 -0.000076 -0.000052 -0.000035 -0.000023 -0.000015 -0.000010 -0.000007 -0.000004 -0.000003 -0.000002 -0.000001 -0.000001 -0.000000 -0.000000 -0.000000 -0.000000 -0.000000 -0.000000 -0.000000 -0.000000 -0.000000 -0.000000 -0.000000 -0.000000 -0.000000 -0.000000 -0.000000 -0.000000 -0.000000 0.000000 -0.000000 -0.000000 0.000000 0.000000 0.000000 0.000000 0.000000 0.000000 0.000000 0.000000 0.000000 0.000000 0.000000 0.000000 0.000000 -0.000000 -0.000000 -0.000000 -0.000000 0.000000 0.000000 0.000000 -0.000000 -0.000000 0.000000 0.000000 0.000000 -0.000000 -0.000000 0.000000 -0.000000 0.000000 0.000000 0.000000 0.000000 0.000000 0.000000 0.000000 0.000000 0.000000 0.000000 0.000000 0.000000 0.000000 0.000000 0.000000 0.000000 0.000000 0.000000 0.000000 0.000000 0.000000 0.000000 0.000000 0.000000 -0.000000 0.000000 0.000000 0.000000 0.000000 0.000000 0.000000 0.000000 0.000000 0.000000 0.000000 0.000000 0.000000 0.000000 -0.000000 0.000000 0.000000 0.000000 0.000000 0.000000 0.000000 0.000000 0.000000 0.000000 0.000000 0.000000 0.000000 0.000000 0.000000 0.000000 -0.000000 0.000000 0.000000 -0.000000 0.000000 0.000000 0.000000 0.000000 -0.000000 -0.000000 -0.000000 -0.000000 -0.000000 -0.000000 -0.000000 -0.000000 -0.000000 -0.000000 -0.000000 -0.000000 -0.000000 -0.000000 -0.000000 -0.000000 -0.000000 -0.000000 -0.000000 -0.000000 -0.000000 -0.000000 -0.000000 0.000000 -0.000000 -0.000000 -0.000000 -0.000000 0.000000 0.000000 0.000000 -0.000000 0.000000 0.000000 0.000000 0.000000 -0.000000 0.000000 0.000000 0.000000 0.000000 0.000000 0.000000 0.000000 0.000000 0.000000 0.000000 0.000000 0.000000 0.000000 0.000000 -0.000000 -0.000000 -0.000000 -0.000000 -0.000000 -0.000000 -0.000000 -0.000000 -0.000000 -0.000000 -0.000000 -0.000000 -0.000000 -0.000000 -0.000000 -0.000001 -0.000001 -0.000002 -0.000003 -0.000005 -0.000008 -0.000012 -0.000020 -0.000032 -0.000052 -0.000082 -0.000130 -0.000204 -0.000318 -0.000493 -0.000759 -0.001161 -0.001765 -0.002665 -0.003999 -0.005962 -0.008834 -0.013015 -0.019084 -0.027914 -0.040956 -0.061182 -0.094648 -0.119557 -0.000000 -0.000000 -0.000000 -0.000000 -0.000000 -0.000000 -0.000000 -0.000000 -0.000000 -0.000000 -0.000000 -0.000000 -0.000000 -0.000000 0.000000 0.000000 0.000000 -0.000000 0.000000 0.000000 0.000000 0.000000 0.000000 0.000000 0.000000 0.000000 0.000000 0.000000 0.000000 0.000000 0.000000 -0.000000 0.000000 0.000000 -0.000000 0.000000 0.000000 0.000000 0.000000 -0.000000 0.000000 0.000000 0.000000 0.000000 -0.000000 0.000000 0.000000 0.000000 0.000000 0.000000 0.000000 0.000000 0.000000 0.000000 0.000000 0.000000 0.000000 0.000000 0.000000 0.000000 0.000000 0.000000 0.000000 0.000000 0.000000 0.000000 0.000000 0.000000 0.000000 -0.000000 -0.000000 0.000000 0.000000 0.000000 0.000000 -0.000000 0.000000 0.000000 0.000000 -0.000000 -0.000000 0.000000 0.000000 -0.000000 -0.000000 0.000000 0.000000 0.000000 -0.000000 0.000000 0.000000 0.000000 0.000000 -0.000000 0.000000 0.000000 0.000000 0.000000 -0.000000 -0.000000 0.000000 0.000000 0.000000 -0.000000 0.000000 0.000000 0.000000 0.000000 -0.000000 -0.000000 -0.000000 -0.000000 -0.000000 -0.000000 -0.000000 -0.000000 -0.000000 -0.000000 -0.000000 -0.000000 -0.000000 -0.000000 -0.000000 -0.000000 -0.000000 -0.000000 -0.000000 -0.000000 0.000000 -0.000000 -0.000000 -0.000000 -0.000000 0.000000 -0.000000 0.000000 0.000000 -0.000000 -0.000000 0.000000 0.000000 0.000000 -0.000000 -0.000000 0.000000 0.000000 0.000000 -0.000000 -0.000000 0.000000 0.000000 0.000000 0.000000 -0.000000 0.000000 0.000000 -0.000000 -0.000000 -0.000000 -0.000000 -0.000000 -0.000000 -0.000000 -0.000000 -0.000000 -0.000000 -0.000000 -0.000000 -0.000000 -0.000000 -0.000000 -0.000000 -0.000000 -0.000001 -0.000001 -0.000002 -0.000003 -0.000005 -0.000007 -0.000012 -0.000020 -0.000032 -0.000051 -0.000081 -0.000129 -0.000202 -0.000315 -0.000489 -0.000753 -0.001153 -0.001752 -0.002646 -0.003970 -0.005919 -0.008768 -0.012904 -0.018868 -0.027410 -0.039540 -0.056450 -0.078426 -0.095583 -0.100648 -0.000000 -0.000000 -0.000000 -0.000000 -0.000000 -0.000000 -0.000000 -0.000000 -0.000000 -0.000000 -0.000000 -0.000000 -0.000000 -0.000000 0.000000 0.000000 0.000000 0.000000 0.000000 0.000000 0.000000 0.000000 0.000000 0.000000 0.000000 0.000000 0.000000 0.000000 0.000000 0.000000 0.000000 0.000000 0.000000 0.000000 0.000000 0.000000 0.000000 0.000000 0.000000 0.000000 0.000000 0.000000 0.000000 0.000000 0.000000 0.000000 0.000000 0.000000 0.000000 0.000000 0.000000 0.000000 0.000000 0.000000 0.000000 0.000000 0.000000 0.000000 0.000000 0.000000 0.000000 0.000000 0.000000 0.000000 0.000000 0.000000 0.000000 0.000000 0.000000 0.000000 -0.000000 0.000000 0.000000 0.000000 0.000000 0.000000 0.000000 0.000000 0.000000 0.000000 0.000000 -0.000000 0.000000 0.000000 -0.000000 0.000000 0.000000 0.000000 0.000000 0.000000 0.000000 0.000000 0.000000 0.000000 -0.000000 0.000000 0.000000 0.000000 0.000000 -0.000000 -0.000000 0.000000 0.000000 0.000000 0.000000 0.000000 0.000000 0.000000 -0.000000 -0.000000 -0.000000 -0.000000 -0.000000 -0.000000 -0.000000 -0.000000 -0.000000 -0.000000 -0.000000 -0.000000 -0.000000 -0.000000 -0.000000 -0.000000 -0.000000 -0.000000 -0.000000 -0.000000 0.000000 0.000000 0.000000 -0.000000 0.000000 0.000000 0.000000 0.000000 0.000000 0.000000 0.000000 -0.000000 -0.000000 -0.000000 0.000000 0.000000 -0.000000 -0.000000 -0.000000 0.000000 0.000000 -0.000000 0.000000 0.000000 0.000000 0.000000 -0.000000 0.000000 0.000000 0.000000 -0.000000 -0.000000 -0.000000 -0.000000 -0.000000 -0.000000 -0.000000 -0.000000 -0.000000 -0.000000 -0.000000 -0.000000 -0.000000 -0.000000 -0.000000 -0.000000 -0.000001 -0.000001 -0.000002 -0.000003 -0.000005 -0.000008 -0.000012 -0.000020 -0.000032 -0.000052 -0.000082 -0.000130 -0.000204 -0.000318 -0.000493 -0.000759 -0.001161 -0.001765 -0.002665 -0.003998 -0.005957 -0.008817 -0.012956 -0.018885 -0.027242 -0.038680 -0.053398 -0.069864 -0.084105 -0.090179 -0.090718 -0.119557 -0.186775 -0.328532 -0.497728 -0.710079 -0.985588 -1.346055 -1.817796 -2.433082 -3.231463 -4.261120 -5.580290 -7.258727 -9.379167 -12.038737 -15.350209 -19.443013 -24.463884 -30.576992 -37.963407 -46.819714 -57.355586 -69.790110 -84.346645 -101.246017 -120.697845 -142.889869 -167.975239 -196.057879 -227.176292 -261.286498 -298.245183 -337.794533 -379.550529 -422.996510 -467.483507 -512.238083 -556.377238 -598.928287 -638.849361 -675.043318 -706.356643 -731.561833 -749.349710 -758.409719 -757.696155 -746.879204 -727.885920 -709.521765 -709.386686 -747.533729 -818.020657 -786.777887 -504.436409 -33.143798 464.816597 613.310386 403.547131 209.114414 -449.434334 -2132.262595 -3404.481614 -3816.374219 -3839.985914 -3532.733889 -2888.653009 -2119.024014 -1486.862238 -1121.609784 -964.971767 -1150.164620 -1864.556340 -2419.053689 -2123.340286 -1275.458359 -341.722992 411.937753 1029.021637 1564.082924 2047.256179 2970.670609 4447.397956 5609.580641 6745.496481 7517.916138 8179.020106 8940.037510 9885.783713 11091.758688 11997.124167 12392.364583 13110.362850 14851.248742 17282.321486 19013.938561 19314.332981 18325.110158 17685.669816 18480.189407 20819.503367 23054.086245 -0.100648 -0.131397 -0.208193 -0.334788 -0.497595 -0.707765 -0.981914 -1.341082 -1.811331 -2.424816 -3.221009 -4.248022 -5.564022 -7.238696 -9.354715 -12.009146 -15.314714 -19.400817 -24.414182 -30.519000 -37.896401 -46.743078 -57.268867 -69.693084 -84.239397 -101.129021 -120.572060 -142.756833 -167.837160 -195.917713 -227.037786 -261.154191 -298.124331 -337.690958 -379.470378 -422.945939 -467.468326 -512.263418 -556.447275 -599.046208 -639.017620 -675.264365 -706.633894 -731.899986 -749.751042 -758.865933 -758.198106 -747.478474 -728.309269 -707.872834 -702.932506 -732.055403 -791.676132 -811.092203 -680.834405 -397.427674 -96.479078 23.627187 -81.853681 -362.086171 -935.342555 -1799.021597 -2586.858977 -2965.500202 -2990.960601 -2739.559706 -2251.130299 -1673.121095 -1200.224066 -994.148266 -993.730491 -1172.778205 -1528.875393 -1863.061050 -1712.758626 -964.177747 53.833787 1109.879023 2112.894515 2950.397716 3683.573486 4579.985011 5576.234881 6473.284259 7226.402062 7834.014125 8539.483778 9472.999667 10636.874553 11915.570369 12994.805169 13746.492662 14687.467009 16530.255067 18796.826516 20497.553097 20896.026310 20282.570035 19818.232876 20538.980976 22406.166408 24815.013167 27067.587397 -0.090718 -0.102226 -0.141941 -0.222901 -0.341625 -0.501491 -0.711197 -0.985918 -1.346152 -1.817824 -2.433091 -3.231465 -4.261121 -5.580291 -7.258727 -9.379167 -12.038737 -15.350209 -19.443013 -24.463884 -30.576992 -37.963407 -46.819714 -57.355586 -69.790110 -84.346645 -101.246017 -120.697845 -142.889869 -167.975239 -196.057879 -227.176292 -261.286498 -298.245183 -337.794533 -379.550529 -422.996510 -467.483507 -512.238085 -556.377245 -598.928314 -638.849452 -675.043547 -706.357143 -731.563076 -749.351841 -758.416867 -757.760585 -747.240296 -728.460372 -707.658443 -699.786964 -722.841354 -776.766545 -816.343844 -764.072288 -597.100225 -401.430720 -317.931191 -414.557200 -680.464787 -1090.580040 -1595.340653 -2066.109830 -2360.814552 -2427.113834 -2247.736286 -1827.099662 -1297.789822 -927.122277 -845.219853 -950.881952 -1121.529816 -1316.891408 -1450.663897 -1281.705858 -628.745589 378.560473 1511.970317 2646.067004 3682.861267 4585.154853 5442.155672 6295.533726 7031.063249 7601.637071 8120.811987 8787.976004 9736.613123 10966.427548 12314.671432 13537.307556 14550.650038 15709.760946 17443.384625 19517.363364 21149.197653 21724.412303 21481.292188 21307.290559 21996.350795 23693.586250 26035.148925 28097.500880 29050.812985 6496.317297 4179.884247 7403.115273 7560.601971 8876.993948 8138.670005 9785.737946 8025.014666 10267.486623 11353.835962 12171.778437 10401.966901 8816.238837 14676.484233 16951.518775 15148.773158 17066.157986 16721.642162 16118.050649 20655.392623 7404.095423 7211.978241 7525.462033 7102.892265 8655.198733 7517.792467 8393.802480 7499.907243 8233.526715 13388.131111 7395.239949 12406.043438 12935.248539 15848.545575 12040.160338 16631.500375 15501.965264 13710.691432 16807.487676 17672.391994 11136.003035 7837.526122 7657.405087 7711.624928 7334.196261 9409.572410 6462.721541 7022.627911 6838.715527 9830.701539 11006.613902 12290.973152 7363.693348 17543.852377 15043.468565 17545.726796 14569.944196 15391.393750 17884.900015 16828.678804 7329.701518 9086.976824 32286.051791 7530.688024 11705.682409 6120.816887 8896.301273 8715.553541 10638.664074 12800.367658 15640.147565 14780.246933 10574.354627 10818.299208 14767.462777 16215.440966 13836.153206 15552.708444 15136.065324 17621.142203 -10114.386840 6042.922059 -20651.430350 7084.564260 9121.876226 4251.978584 132609.206858 42764.794900 8778.725700 9198.472144 12777.204103 9011.764556 12782.146931 14850.937349 11173.994423 15555.328870 13767.897104 6215.144978 17020.429904 17069.186405 7499.870132 12876.267642 7980.285357 6646.058583 38645.018021 3139.258199 6242.354296 7057.957825 10454.958829 15507.255460 984.000612 19857.419651 15659.062691 6225.304467 14082.505549 15676.933320 14164.426917 15931.253802 19217.218100 14738.165419 6674.276033 11377.437605 13588.836672 12959.730545 15818.107910 -20025.105004 11751.709097 5949.370702 11294.251747 15325.277215 -13608.457630 8310.157165 8972.525081 19168.657178 -13271.276345 8396.965854 20883.725185 14544.866945 17716.625279 16892.298477 145044.619401 12822.742650 100718.375897 5653.904392 8310.711149 148305.949604 7680.757581 5300.349968 6075.396509 32233.349939 6883.484779 8556.543411 19095.770637 -273.994846 131168.530485 18781.889114 13613.100935 12117.969196 24864.388246 11255.423282 5630.717190 5933.646789 12561.981980 6878.338070 35045.157836 8101.300713 6955.844129 6925.527797 18341.304439 8342.087060 14102.603011 10945.241667 20890.644214 4305.058594 21682.935240 18058.671693 8301.209525 13896.225549 10105.435827 16289.271369 -18132.199699 5421.791668 10673.966418 14529.792789 5987.339206 83437.733648 3875.411327 109750.101841 3721.427385 5329.784385 124071.252068 63100.978449 9439.257780 21833.892686 6419.879898 25865.238502 49718.323812 21310.032007 15077.088664 25186.516819 20635.565232 46648.899364 105064.869552 7003.551797 11201.681765 8623.195032 -21663.460056 6857.466713 80168.998737 31849.578252 12329.643750 8794.887575 8694.783126 11227.016287 9591.976960 18164.049702 18968.416986 5565.101936 7685.408200 14890.223167 9667.858154 -4981.571912 141433.477332 13534.705398 29048.529952 8352.790573 4837.604002 10891.842076 15777.091352 9352.151532 8049.437179 -1749.061548 10559.617923 6086.602966 9647.163491 12550.443711 20196.611223 5563.887436 11115.667554 11236.328465 60034.640081 16016.525728 3883.433753 11038.976023 2932.612900 129923.441895 8823.375037 5943.657978 9095.029448 8820.216357 5348.030809 15570.731294 7936.996410 6719.809484 14121.565220 4942.638279 23455.985131 13585.245853 19466.883553 16528.794091 6529.794578 -6243.209331 9464.897887 8511.076404 83670.822250 10843.513655 4024.916948 13894.151708 9990.418653 5256.525026 10149.292183 5492.954087 -2421.315251 19027.279522 4735.605897 17906.347095 17038.307051 18618.411051 27517.320146 24640.516203 5129.475861 9967.658874 9336.091730 6393.082822 9805.963711 8299.498692 9083.445613 7515.353535 6736.300006 6286.068144 13657.571460 13863.836973 14930.919288 11486.498113 12039.679282 19913.220575 17720.757368 19025.729249 17430.159923 17229.175578 7754.485316 7148.042674 8763.695351 9968.312251 9018.369964 14324.777346 12334.760573 12145.201516 8709.342712 9932.641558 15009.934201 13675.389824 1595.297973 16730.395514 15968.482773 18866.308338 17336.578171 4631.815504 15036.942635 16835.991343 10756.689760 16544.531958 9279.287676 14567.332606 6120.350079 106126.201682 10172.398049 7906.195053 10518.134387 13704.984557 18831.644176 12458.915442 17307.973975 17607.300318 17348.276871 20699.122576 14812.443430 15402.448013 14384.219261 8443.562502 12438.539244 4410.298011 10039.978939 9487.232559 10024.096539 8784.446618 9823.239535 10173.624243 10828.093926 11168.926209 14785.712130 19112.217032 17536.308687 19287.769470 18395.514363 19105.337520 18549.176990 15818.124540 16818.225403 8930.253963 9975.552781 12160.238352 5046.887446 9173.672012 12254.721491 14062.900878 16640.474910 17424.643853 16008.558733 14615.730994 18688.799273 19461.238439 15541.056164 15305.456743 14044.338868 20194.581777 16345.952385 20626.321291 18121.487200 12885.765296 11090.842287 9912.344401 9104.564338 9532.703938 13286.136675 13646.478310 12593.160679 14849.228906 11539.763395 16475.852083 19975.168755 20125.691340 19446.182019 18723.775589 18064.192960 18739.665301 16607.159218 16275.263070 7451.243340 15694.190361 10281.508010 14674.589569 10726.577403 9657.036806 15495.225339 10388.991748 16019.801763 16672.494671 12903.563262 16000.616012 18907.514579 16872.876494 18394.497251 19580.510797 19761.815712 19962.785171 21097.756196 19672.290893 17853.454595 16350.040980 10367.716228 12533.630564 10197.602770 10381.925029 13490.419159 12246.288414 16288.261141 11253.987845 17871.719930 14781.864034 17640.921040 13012.963652 17076.778633 20743.700224 18706.817632 20578.049399 20415.907036 18186.592730 16597.000700 18787.641685 12614.098418 9861.419597 10292.710173 12881.992706 11467.815756 12994.057561 12020.147502 16580.190005 11403.069342 15699.515585 17740.128099 18868.992974 18768.770501 20265.699774 19055.893021 20947.021605 19505.725801 21183.860682 18163.569969 19441.935978 10587.496160 10564.629407 14422.433078 7241.201807 7793.762836 10783.349889 12905.835830 14452.672926 17149.144210 18110.794589 13719.842405 16804.224590 19839.782224 16746.099103 19688.425194 20100.791105 18990.231574 20038.086998 19915.592859 18584.874492 11250.079679 10139.855862 12972.474639 8206.021926 9991.235462 12329.889529 15925.250609 12707.789031 18828.850092 14711.234141 18706.491998 19380.360171 19091.417073 20261.396565 19526.410691 19833.857475 20124.944748 20455.209473 18258.663409 21661.977028 8820.661237 16213.558446 17071.251092 11635.814912 16333.108832 14955.754007 12055.163014 19338.190563 9328.795909 18007.061814 17211.605759 20684.177980 20341.178007 19912.347488 20621.521303 20293.880819 19770.565650 20514.109512 19968.730583 19628.200336 14888.109555 11434.504227 7736.154190 9437.687261 5907.103373 14800.946645 12172.264346 16226.627695 18658.015731 18984.138739 21165.911499 21378.829549 19386.362798 20881.781286 19831.966175 21268.942435 22645.033326 21235.093083 20245.397869 18519.442372 10053.762064 6193.262391 9826.920321 7804.123576 7142.424908 10508.082557 13105.837595 19131.753648 13086.482795 22525.449054 19554.303711 22665.959875 16243.328345 18869.152490 20651.492293 20893.427966 21422.028638 20014.159531 21594.232812 20704.956016 5216.470810 8285.459281 3755.283705 10672.973723 10988.989430 13691.568970 16620.183095 13598.781720 14650.349751 18177.398202 13621.484163 14557.864008 22415.313570 21727.879293 21150.697322 22395.904244 21761.099595 21283.881385 22417.601272 21005.100869 816.821530 7708.000642 7618.496087 8753.764454 8555.186367 10542.194923 9704.421379 13111.649758 17831.783458 19042.712436 11066.659170 19304.366340 20042.976536 22613.827723 21474.839203 20463.413103 20350.019124 21200.181606 17776.339736 20596.230557 -418.110710 4191.938396 832.924812 7393.320069 9596.865733 11111.044427 9618.288416 9697.410436 11357.760939 19967.881125 17794.095832 18545.741694 17538.403577 20519.045513 22455.483878 23195.141131 24181.607791 20643.857354 20871.707846 20867.537986 1921.753629 935.830311 1900.251219 5580.727380 5187.606513 6040.934107 14801.113714 7569.170172 13205.630154 14880.886311 15523.023115 12001.990372 15433.679989 21004.213068 21624.268210 21027.779842 24417.680368 20030.220209 20905.607045 20969.609520 1500.616257 1049.734475 1070.553671 4164.156696 5400.559700 11127.307794 6383.329057 7577.835622 13688.945602 16706.062067 16057.094520 18768.839012 23389.592436 21665.849483 23502.625505 23387.809318 23544.099939 20124.742076 20238.650702 19838.833833 1128.147281 3819.079339 3097.660227 3101.857720 5166.335407 9341.581399 10702.121388 13210.005928 12670.667707 12375.400867 15345.346019 20849.294147 17204.863762 20276.611798 22627.679820 22304.655452 22236.926251 20693.630217 20154.816473 20330.394714 492.378518 854.458134 1042.598405 4055.804289 4571.053133 10306.762340 7185.286020 6411.784779 17169.769944 18703.233157 21816.434090 24122.010354 16614.656133 23059.098133 23918.264997 25849.401032 22227.933803 24940.512985 22948.888065 22711.292209 430.461329 834.212064 1482.217038 4556.270791 5692.381039 9243.526084 9971.005555 8887.581121 9654.288951 12871.264568 17945.700668 19552.830094 24573.849623 21086.814854 21606.034457 25054.076139 23689.176913 26361.190296 20340.875770 20445.283