<VTKFile type="PolyData">
<PolyData>
<Piece NumberOfPoints="6715" NumberOfVerts="6715" NumberOfLines="0" NumberOfStrips="0" NumberOfPolys="0">
<PointData>
<DataArray type="Float64" Name="Pressure" format="ascii">
 14526.355855 14971.861004 15309.155670 15213.020085 14961.357110 14381.103615 13731.918888 12904.259861 12016.463607 11426.812022 11180.678439 11060.803037 11876.364135 14174.390888 16294.800002 18430.108154 23087.754152 28038.184657 30271.402537 24231.396101 15658.637007 12676.352051 13394.207224 14961.818457 16205.341771 16459.983394 16570.884309 16679.610434 17052.382551 17369.963172 17665.678909 17852.715444 17864.498103 17537.525219 17383.810119 17522.867552 18087.019878 18825.953476 19528.232298 19819.509609 19630.367904 19077.380356 18606.149214 18243.767724 17955.514468 17627.119458 17796.261551 18412.727619 18562.809667 18134.759206 17505.545575 17170.573375 17142.124292 17061.034774 16326.516735 15823.484155 16049.748814 16653.031363 17141.076068 17349.606729 17644.018097 17724.279038 17450.319756 16929.705995 16527.027134 16149.578040 16073.422891 16389.674400 16729.318810 16972.293037 17056.161387 17145.541422 17380.075838 17437.728093 17241.249630 17028.209178 16937.935868 16743.168141 16535.936707 16298.118119 16065.035134 15767.075730 15476.620559 15252.107144 15044.180748 14946.671121 15039.909760 14994.321366 14790.844795 14439.313099 14157.148727 14113.757869 14195.919492 14371.647949 14447.602380 14522.342604 14412.538543 14217.740255 14100.203211 14060.674390 14042.767664 13994.423897 13862.489060 13707.910818 13826.322394 13904.935137 14026.915577 13851.895810 13444.095752 12963.119461 12580.474898 12504.090578 12523.479605 12654.996720 12813.785602 12980.440926 13018.188326 12929.310751 12775.205929 12559.329107 12269.052673 11990.882993 11672.676946 11345.022608 11095.345359 10949.888754 10820.449904 10690.591924 10631.888420 10658.442207 10725.062543 10792.750338 10825.194709 10899.483390 11015.584601 11073.698922 11172.113750 11267.649351 11377.922888 11495.107574 11441.440386 11221.756390 11034.241774 10901.601707 10836.806115 10796.274508 10782.922438 10715.957261 10618.468457 10531.174998 10407.253792 10318.716532 10272.070139 10223.965246 10225.055980 10308.328318 10428.569476 10498.989867 10526.860443 10504.214693 10478.462420 10498.929719 10560.833002 10639.592973 10710.377488 10759.116806 10823.813287 10853.778581 10888.311822 10932.697213 11029.480244 11168.661583 11358.048531 11566.874628 11789.310739 11973.014583 12121.399405 12194.979285 12262.561824 12369.465110 12474.208993 12492.435913 12406.834665 12295.182749 12312.939698 12475.243777 12628.690204 12766.837273 12878.595036 12969.705961 12976.983409 12862.168898 12789.364450 12857.628662 12895.655585 12768.627958 12709.110014 12793.194123 13014.474804 13418.524683 13874.443152 13665.013703 14115.649884 14603.295501 14982.357152 15118.902428 14966.438759 14474.938081 13651.366876 12706.500581 11852.040514 11255.042260 10909.468239 10698.270460 10723.008974 11173.510738 11961.737964 12865.756418 13657.258046 14943.286961 15035.612851 13388.616469 12176.425137 12450.820887 14108.379021 15811.873045 16720.688516 16912.865739 16827.366138 16839.631465 17106.573507 17394.171858 17627.576246 17777.094665 17729.256852 17491.427849 17387.187871 17584.514344 18137.372611 18897.096214 19543.360806 19773.099926 19562.832497 19070.940120 18609.500902 18212.575526 17784.299813 17489.427404 17555.898049 17894.587349 18121.946308 17939.605300 17452.403298 17052.802429 16858.575920 16710.296174 16396.723334 16219.945915 16497.214659 17009.159204 17386.402524 17644.576292 17800.271239 17766.653746 17565.491127 17292.070933 17063.601579 16914.974746 16862.608920 17010.041890 17276.984006 17485.966182 17597.692520 17679.296380 17773.924938 17804.853794 17634.654030 17389.617454 17160.051170 16921.849938 16722.824041 16565.422457 16368.670906 16089.118584 15810.902239 15592.989674 15384.142314 15226.909025 15194.948655 15135.314858 14954.796290 14705.481018 14468.190211 14365.836958 14481.337220 14699.472347 14834.471141 14835.885895 14737.455473 14593.381574 14489.735492 14482.866529 14486.545892 14444.778841 14370.682234 14259.649911 14221.879230 14266.167772 14205.990747 13973.879993 13557.304127 13065.660773 12732.323433 12640.458180 12692.498598 12827.533957 13001.941926 13179.626878 13244.816719 13155.422738 12958.909608 12714.121841 12421.868806 12112.609336 11801.431714 11498.617651 11250.691173 11065.530139 10918.887373 10799.488168 10756.983261 10806.386006 10912.774996 11015.401380 11139.065054 11270.913078 11372.324421 11453.465678 11546.328699 11639.760289 11724.521179 11740.877922 11640.359950 11449.480997 11255.366322 11111.208832 11039.347154 11002.521726 10965.603111 10909.956700 10822.365296 10697.510423 10579.997042 10505.018354 10452.070624 10419.884651 10444.345546 10543.304285 10665.593558 10753.989762 10796.174673 10787.725002 10764.542572 10801.947661 10906.406961 11012.787817 11095.199932 11172.233791 11231.423566 11271.128915 11307.177589 11359.717473 11469.098660 11637.934182 11833.918285 12028.863484 12216.201476 12407.234184 12548.955415 12644.437638 12741.286096 12849.736720 12938.008511 12950.877124 12908.261547 12876.192755 12901.756626 13013.989873 13153.007347 13263.420681 13354.983952 13419.251370 13403.793154 13348.942752 13333.384667 13368.861893 13380.705150 13330.873728 13311.551104 13413.275153 13647.029023 14002.255461 14391.274158 14720.584380 13271.751449 13461.811412 13877.068934 14365.279286 14743.393920 14911.600384 14785.049007 14331.285491 13580.237501 12702.006792 11884.111355 11258.808161 10855.016670 10615.615703 10475.173641 10391.565419 10358.472547 10365.269055 10337.834645 10467.963588 10589.092078 10739.500005 11332.064090 12688.657325 14473.242705 15953.788296 16725.262729 16893.804095 16820.874312 16837.914149 17028.315605 17282.627081 17497.025879 17610.858628 17559.685658 17426.183394 17409.140966 17660.198515 18185.545232 18855.729851 19425.078683 19665.132992 19518.964508 19092.839448 18561.646384 18054.285363 17650.007362 17476.245310 17564.754179 17793.546617 17930.808311 17793.848719 17436.949268 17076.492757 16838.319708 16680.305076 16553.997092 16556.909316 16798.002004 17167.951580 17499.964540 17743.906032 17860.922105 17828.419555 17687.518189 17520.702915 17388.513815 17326.131813 17342.080357 17444.067202 17609.253460 17765.221853 17890.474409 17993.454392 18044.522181 18002.863243 17829.154123 17562.193267 17276.337215 17035.132699 16862.957138 16735.135715 16560.179898 16293.317732 15993.425740 15723.048173 15516.190727 15384.490347 15309.009663 15213.238151 15048.592415 14843.060907 14662.824259 14598.763662 14697.291338 14876.244681 15006.251196 15016.103619 14938.778747 14828.591003 14744.045446 14710.768466 14683.784651 14618.255874 14518.273257 14415.143980 14354.009692 14323.380813 14212.687600 13967.940996 13585.616206 13160.032422 12849.431172 12725.683627 12768.433349 12906.810686 13077.382490 13217.428908 13262.261133 13178.578339 12993.603312 12748.510871 12461.921154 12153.739548 11849.044525 11566.199846 11325.236034 11133.568700 10980.478009 10856.867304 10801.486046 10849.544614 10972.137394 11113.887205 11265.801387 11406.870754 11516.949347 11608.667648 11688.566505 11759.114541 11805.566090 11788.767413 11686.276722 11520.762775 11343.428083 11200.419802 11111.749008 11061.901271 11017.491319 10961.423813 10877.609232 10763.659990 10655.811094 10577.281146 10528.408929 10515.569103 10552.809988 10641.869112 10757.044531 10863.222542 10932.417983 10959.113563 10968.372852 11008.771306 11093.222494 11188.493463 11275.022282 11353.677309 11417.662155 11468.843828 11521.405634 11597.003432 11714.409015 11877.392090 12067.896595 12260.807724 12443.394968 12613.973638 12751.993465 12861.709564 12965.977001 13065.360584 13138.614995 13166.961725 13164.655583 13172.859333 13218.059492 13310.250375 13423.974208 13522.171068 13595.314275 13631.487436 13620.119871 13591.506685 13582.694984 13594.418835 13597.558180 13589.577117 13610.860386 13721.831067 13944.817112 14268.304594 14645.805117 14968.494159 15126.119235 13874.443152 13006.649408 11882.988844 11002.578575 10413.257172 9912.456045 9376.887869 8766.424714 8046.151618 7221.674906 6544.889146 5967.900985 5452.775833 4909.592288 4353.231431 3798.463118 3379.436935 2987.130673 2734.970193 2495.197181 2468.731269 2535.759927 2516.853775 2430.669967 2293.033460 2115.929326 1913.349422 1699.158908 1485.412762 1281.614899 1094.427112 927.731961 782.986459 659.774177 556.417345 470.535920 399.492991 340.708833 291.853118 250.938682 216.344537 186.793905 161.308143 139.151579 119.776952 102.776895 87.843877 74.739009 63.269026 53.270167 44.597539 37.118596 30.709538 25.253648 20.640839 16.767830 13.538587 10.864787 8.666146 6.870559 5.414037 4.240437 3.301048 2.554052 1.963908 1.500700 1.139477 0.859611 0.644193 0.479476 0.354368 0.259991 0.189294 0.136715 0.097900 0.069468 0.048809 0.033926 0.023301 0.015790 0.010535 0.006902 0.004422 0.002754 0.001652 0.000938 0.000487 0.000212 0.000052 -0.000035 -0.000076 -0.000090 -0.000089 -0.000081 -0.000069 -0.000056 -0.000044 -0.000033 -0.000023 -0.000014 -0.000010 14720.584380 14177.257072 13298.813243 12284.616556 11432.375588 10776.153553 10209.684396 9632.344618 8996.804154 8284.424391 7528.015937 6838.121071 6236.344678 5690.048228 5139.081688 4592.405732 4067.883361 3619.767748 3232.072710 2941.384162 2728.057149 2628.801582 2588.513731 2534.430026 2438.334944 2296.742109 2117.739682 1914.093847 1699.209234 1484.985084 1280.867945 1093.497047 926.733646 782.007379 658.872632 555.625399 469.864946 398.939910 340.261828 291.496208 250.654974 216.118261 186.611484 161.158575 139.026378 119.669853 102.683455 87.761061 74.664815 63.202171 53.209836 44.543204 37.069881 30.666134 25.215262 20.607165 16.738539 13.513327 10.843190 8.647836 6.855167 5.401201 4.229818 3.292331 2.546951 1.958165 1.496089 1.135801 0.856701 0.641906 0.477690 0.352983 0.258925 0.188479 0.136096 0.097434 0.069120 0.048550 0.033736 0.023162 0.015689 0.010463 0.006850 0.004386 0.002729 0.001635 0.000926 0.000480 0.000207 0.000049 -0.000037 -0.000077 -0.000091 -0.000090 -0.000081 -0.000069 -0.000056 -0.000044 -0.000033 -0.000024 -0.000016 -0.000010 -0.000008 15126.119235 14888.036523 14286.898369 13400.982015 12475.050336 11645.402902 10956.062779 10353.669205 9755.603563 9106.391136 8398.950650 7673.540647 6988.714328 6369.262736 5799.626761 5249.892513 4710.680626 4198.203966 3738.125911 3348.628965 3044.055665 2829.110554 2699.663225 2621.650792 2546.383057 2441.478810 2296.892759 2117.227957 1913.758218 1699.275817 1485.445409 1281.624908 1094.430516 927.733147 782.986859 659.774307 556.417386 470.535933 399.492995 340.708835 291.853118 250.938682 216.344537 186.793905 161.308143 139.151579 119.776952 102.776895 87.843877 74.739009 63.269026 53.270167 44.597539 37.118596 30.709538 25.253648 20.640839 16.767830 13.538587 10.864787 8.666146 6.870559 5.414037 4.240437 3.301048 2.554052 1.963908 1.500700 1.139477 0.859611 0.644193 0.479476 0.354368 0.259991 0.189294 0.136715 0.097900 0.069468 0.048809 0.033926 0.023301 0.015790 0.010535 0.006902 0.004422 0.002754 0.001652 0.000938 0.000487 0.000212 0.000052 -0.000035 -0.000076 -0.000090 -0.000089 -0.000081 -0.000069 -0.000056 -0.000044 -0.000033 -0.000024 -0.000017 -0.000011 -0.000008 -0.000008 -0.000010 -0.000008 -0.000005 -0.000004 -0.000003 -0.000002 -0.000001 -0.000001 -0.000001 -0.000000 -0.000000 -0.000000 -0.000000 -0.000000 -0.000000 -0.000000 -0.000000 -0.000000 -0.000000 -0.000000 -0.000000 -0.000000 -0.000000 -0.000000 -0.000000 -0.000000 0.000000 0.000000 -0.000000 -0.000000 -0.000000 -0.000000 0.000000 0.000000 0.000000 -0.000000 -0.000000 0.000000 0.000000 0.000000 -0.000000 -0.000000 0.000000 -0.000000 0.000000 0.000000 0.000000 0.000000 0.000000 0.000000 0.000000 0.000000 0.000000 0.000000 0.000000 0.000000 0.000000 0.000000 0.000000 0.000000 0.000000 0.000000 0.000000 0.000000 0.000000 0.000000 0.000000 0.000000 -0.000000 0.000000 0.000000 0.000000 0.000000 0.000000 0.000000 0.000000 0.000000 0.000000 0.000000 0.000000 0.000000 0.000000 -0.000000 0.000000 0.000000 0.000000 0.000000 0.000000 0.000000 0.000000 0.000000 0.000000 0.000000 0.000000 0.000000 0.000000 0.000000 0.000000 -0.000000 0.000000 0.000000 -0.000000 0.000000 0.000000 0.000000 0.000000 -0.000000 -0.000000 -0.000000 -0.000000 -0.000000 -0.000000 -0.000000 -0.000000 -0.000000 -0.000000 -0.000000 -0.000000 -0.000000 -0.000000 -0.000000 -0.000000 -0.000000 -0.000000 -0.000000 -0.000000 -0.000000 -0.000000 -0.000000 0.000000 -0.000000 -0.000000 -0.000000 -0.000000 0.000000 0.000000 0.000000 -0.000000 0.000000 0.000000 0.000000 -0.000000 -0.000000 -0.000000 -0.000000 -0.000000 -0.000000 -0.000000 -0.000000 -0.000000 -0.000000 -0.000000 -0.000000 -0.000000 -0.000000 -0.000000 -0.000000 -0.000000 -0.000001 -0.000001 -0.000001 -0.000002 -0.000003 -0.000005 -0.000008 -0.000012 -0.000018 -0.000028 -0.000041 -0.000061 -0.000091 -0.000133 -0.000196 -0.000285 -0.000414 -0.000598 -0.000860 -0.001231 -0.001754 -0.002487 -0.003510 -0.004930 -0.006892 -0.009590 -0.013282 -0.018309 -0.025121 -0.034306 -0.046631 -0.063088 -0.084954 -0.113867 -0.151916 -0.201759 -0.266793 -0.351445 -0.461815 -0.607462 -0.808200 -1.102139 -1.306171 -0.000008 -0.000008 -0.000007 -0.000005 -0.000004 -0.000002 -0.000002 -0.000001 -0.000001 -0.000001 -0.000000 -0.000000 -0.000000 -0.000000 -0.000000 -0.000000 -0.000000 -0.000000 -0.000000 -0.000000 -0.000000 -0.000000 -0.000000 -0.000000 -0.000000 -0.000000 0.000000 0.000000 0.000000 0.000000 0.000000 -0.000000 0.000000 0.000000 -0.000000 0.000000 0.000000 0.000000 0.000000 -0.000000 0.000000 0.000000 0.000000 0.000000 -0.000000 0.000000 0.000000 0.000000 0.000000 0.000000 0.000000 0.000000 0.000000 0.000000 0.000000 0.000000 0.000000 0.000000 0.000000 0.000000 0.000000 0.000000 0.000000 0.000000 0.000000 0.000000 0.000000 0.000000 0.000000 -0.000000 -0.000000 0.000000 0.000000 0.000000 0.000000 -0.000000 0.000000 0.000000 0.000000 -0.000000 -0.000000 0.000000 0.000000 -0.000000 -0.000000 0.000000 0.000000 0.000000 -0.000000 0.000000 0.000000 0.000000 0.000000 -0.000000 0.000000 0.000000 0.000000 0.000000 -0.000000 -0.000000 0.000000 0.000000 0.000000 -0.000000 0.000000 0.000000 0.000000 0.000000 -0.000000 -0.000000 -0.000000 -0.000000 -0.000000 -0.000000 -0.000000 -0.000000 -0.000000 -0.000000 -0.000000 -0.000000 -0.000000 -0.000000 -0.000000 -0.000000 -0.000000 -0.000000 -0.000000 -0.000000 0.000000 -0.000000 -0.000000 -0.000000 -0.000000 0.000000 -0.000000 0.000000 0.000000 -0.000000 -0.000000 0.000000 0.000000 -0.000000 -0.000000 -0.000000 -0.000000 -0.000000 -0.000000 -0.000000 -0.000000 -0.000000 -0.000000 -0.000000 -0.000000 -0.000000 -0.000000 -0.000000 -0.000000 -0.000000 -0.000000 -0.000001 -0.000001 -0.000001 -0.000002 -0.000003 -0.000005 -0.000008 -0.000012 -0.000018 -0.000027 -0.000041 -0.000061 -0.000090 -0.000133 -0.000194 -0.000284 -0.000412 -0.000595 -0.000855 -0.001225 -0.001745 -0.002474 -0.003492 -0.004906 -0.006859 -0.009546 -0.013222 -0.018229 -0.025014 -0.034165 -0.046445 -0.062844 -0.084635 -0.113450 -0.151364 -0.201004 -0.265676 -0.349511 -0.457625 -0.596194 -0.771282 -0.980214 -1.138582 -1.191096 -0.000008 -0.000008 -0.000007 -0.000006 -0.000005 -0.000003 -0.000002 -0.000002 -0.000001 -0.000001 -0.000001 -0.000000 -0.000000 -0.000000 -0.000000 -0.000000 -0.000000 -0.000000 -0.000000 -0.000000 -0.000000 -0.000000 -0.000000 -0.000000 -0.000000 -0.000000 -0.000000 0.000000 0.000000 0.000000 0.000000 0.000000 0.000000 0.000000 0.000000 0.000000 0.000000 0.000000 0.000000 0.000000 0.000000 0.000000 0.000000 0.000000 0.000000 0.000000 0.000000 0.000000 0.000000 0.000000 0.000000 0.000000 0.000000 0.000000 0.000000 0.000000 0.000000 0.000000 0.000000 0.000000 0.000000 0.000000 0.000000 0.000000 0.000000 0.000000 0.000000 0.000000 0.000000 0.000000 -0.000000 0.000000 0.000000 0.000000 0.000000 0.000000 0.000000 0.000000 0.000000 0.000000 0.000000 -0.000000 0.000000 0.000000 -0.000000 0.000000 0.000000 0.000000 0.000000 0.000000 0.000000 0.000000 0.000000 0.000000 -0.000000 0.000000 0.000000 0.000000 0.000000 -0.000000 -0.000000 0.000000 0.000000 0.000000 0.000000 0.000000 0.000000 0.000000 -0.000000 -0.000000 -0.000000 -0.000000 -0.000000 -0.000000 -0.000000 -0.000000 -0.000000 -0.000000 -0.000000 -0.000000 -0.000000 -0.000000 -0.000000 -0.000000 -0.000000 -0.000000 -0.000000 -0.000000 0.000000 0.000000 0.000000 -0.000000 0.000000 0.000000 0.000000 0.000000 0.000000 0.000000 0.000000 -0.000000 -0.000000 -0.000000 -0.000000 -0.000000 -0.000000 -0.000000 -0.000000 -0.000000 -0.000000 -0.000000 -0.000000 -0.000000 -0.000000 -0.000000 -0.000000 -0.000000 -0.000000 -0.000000 -0.000000 -0.000000 -0.000001 -0.000001 -0.000001 -0.000002 -0.000003 -0.000005 -0.000008 -0.000012 -0.000018 -0.000028 -0.000041 -0.000061 -0.000091 -0.000133 -0.000196 -0.000285 -0.000414 -0.000598 -0.000860 -0.001231 -0.001754 -0.002487 -0.003510 -0.004930 -0.006892 -0.009590 -0.013282 -0.018309 -0.025121 -0.034306 -0.046631 -0.063086 -0.084950 -0.113854 -0.151871 -0.201609 -0.266294 -0.349787 -0.456311 -0.589227 -0.747039 -0.913515 -1.053949 -1.118534 -1.129052 -1.306171 -1.754912 -2.652508 -3.641630 -4.774356 -6.111624 -7.704740 -9.607188 -11.877322 -14.579381 -17.783871 -21.567615 -26.013524 -31.210090 -37.250547 -44.231679 -52.252231 -61.410902 -71.803915 -83.522164 -96.647977 -111.251551 -127.387155 -145.089225 -164.368520 -185.208543 -207.562459 -231.350776 -256.460078 -282.743074 -310.020241 -338.083247 -366.700285 -395.623290 -424.596756 -453.367578 -481.694753 -509.357034 -536.155755 -561.909549 -586.438834 -609.542204 -630.973399 -650.432014 -667.575958 -682.021207 -693.133544 -699.296817 -696.592227 -677.786987 -635.546921 -577.683609 -518.912141 -472.208740 -488.076657 -551.837212 -564.886975 -460.131814 -295.287520 -128.354678 98.335198 157.838165 -29.727587 -446.784326 -976.508562 -1886.991257 -2595.847087 -3196.752767 -3451.277976 -3248.094736 -3061.971142 -2678.608681 -2387.103348 -2351.577039 -2306.844825 -1784.458981 -1064.452933 -558.172018 508.808906 1021.254620 1328.756204 1651.706982 1886.759507 2146.820265 2518.626806 2997.592156 3564.206455 4332.266847 5289.516307 6311.880196 7479.786943 8433.712671 9521.890061 10652.988479 11702.915043 12882.718917 13860.939088 14557.854181 14786.007394 14779.109598 14526.355855 -1.191096 -1.399485 -1.905693 -2.699787 -3.647967 -4.768901 -6.101138 -7.691021 -9.590569 -11.857700 -14.556517 -17.757489 -21.537438 -25.979294 -31.171585 -37.207600 -44.184194 -52.200201 -61.354432 -71.743240 -83.457667 -96.580203 -111.181221 -127.315169 -145.016660 -164.296621 -185.138698 -207.496167 -231.289599 -256.405579 -282.696750 -309.983432 -338.057053 -366.685479 -395.620235 -424.605356 -453.387278 -481.724617 -509.395958 -536.202846 -561.964631 -586.502905 -609.617522 -631.063056 -650.539117 -667.703720 -682.184441 -693.413598 -699.924636 -698.086283 -681.494648 -643.663012 -588.782863 -532.584119 -488.810369 -483.964249 -516.362701 -515.041668 -417.016308 -240.228713 -39.411911 126.051481 154.367479 -24.579956 -437.887765 -1024.640642 -1748.138076 -2489.953535 -3022.796070 -3177.593743 -3039.950820 -2765.061208 -2501.191277 -2382.603275 -2309.752226 -2184.981089 -1882.659134 -1176.618009 -266.836291 391.414737 848.374692 1286.127411 1607.673744 1822.818740 2040.577191 2362.013321 2845.776817 3429.685080 4174.791060 5103.574840 6108.172177 7257.399662 8349.347224 9401.754581 10461.350196 11553.533776 12682.184906 13600.743544 14133.080002 14315.667787 14296.269201 14033.396361 13665.013703 -1.129052 -1.207855 -1.475989 -2.005812 -2.743366 -3.668350 -4.782449 -6.114064 -7.705476 -9.607410 -11.877389 -14.579401 -17.783877 -21.567616 -26.013524 -31.210090 -37.250547 -44.231679 -52.252231 -61.410902 -71.803915 -83.522164 -96.647977 -111.251551 -127.387155 -145.089225 -164.368520 -185.208543 -207.562459 -231.350776 -256.460078 -282.743074 -310.020241 -338.083247 -366.700285 -395.623290 -424.596756 -453.367579 -481.694754 -509.357036 -536.155758 -561.909551 -586.438846 -609.542371 -630.974457 -650.436033 -667.588188 -682.062770 -693.297623 -699.841847 -698.204683 -682.641532 -648.058817 -596.595506 -541.247011 -498.900587 -483.130774 -484.440769 -456.345755 -357.288503 -196.683621 -14.364289 124.750584 136.394556 -47.241545 -450.379266 -1036.104922 -1710.422715 -2347.766235 -2799.240130 -2984.213546 -2937.540269 -2744.058845 -2540.160496 -2398.416605 -2278.084142 -2097.142741 -1752.077564 -1156.997081 -415.128206 245.757755 785.672512 1217.800708 1529.596166 1758.798835 1987.230319 2297.176106 2738.530968 3330.891671 4083.899358 4977.076607 5972.331114 7037.265904 8131.692913 9234.677864 10331.264380 11422.570299 12451.255643 13270.522360 13778.572437 13991.576860 13963.080855 13727.767882 13431.008700 13271.751449 6057.149706 1995.773318 5341.295468 3805.612185 4283.583486 3179.799707 6075.649421 5364.045037 6748.321350 6098.255247 8090.635521 5853.476640 5546.589700 10075.776432 10806.791458 10742.293972 11529.674116 14704.160219 14869.062441 14954.939511 4414.541615 2467.009683 3211.882884 5779.369082 5664.512702 5299.660133 3741.369852 5341.690927 4663.114901 7607.346229 5466.315998 9075.788386 10588.479245 8871.866556 7989.730990 13907.570757 13105.518932 10903.927979 14985.317531 14809.205819 7674.092395 4704.759388 3495.852317 4184.887688 5200.523318 6901.409479 5101.771840 5493.123997 5995.856148 6239.309902 7510.549389 8079.972973 5131.878404 12927.657256 12288.013163 15199.071667 12308.495392 14391.701943 15310.145111 14278.339051 5100.557560 8075.397219 36069.061530 6093.798459 10176.911956 5197.991183 5916.798496 6896.556113 7180.430694 11401.012203 13920.461369 9958.526224 7889.683027 8348.928109 11404.826210 13109.420486 8335.926747 13808.198588 12749.834611 14677.061653 7531.521979 5159.578553 4810.081162 7825.427388 6199.464740 13034.962430 -12217.078774 49344.602955 6483.277965 7507.845960 10145.819669 5285.760298 18693.185832 9897.024424 5868.420847 14230.602925 11422.758879 5058.204442 13750.608790 13670.954036 10070.138731 11426.461559 5207.723750 5622.851470 -1099.312370 10384.479417 6440.291741 5805.448041 8381.998295 8272.804483 9987.611002 11361.889763 12971.560037 5282.323191 7871.655507 12139.286976 13275.450758 10019.464817 11945.133572 11141.342196 4925.717856 9358.375216 9618.864360 8045.073607 10217.924536 23453.553076 8094.357293 6085.095746 7191.847265 18614.212023 14705.793358 5233.438283 5384.783639 11943.977706 10134.071967 15773.988407 11514.304747 12799.979607 12532.410373 13014.506968 71479.153212 6539.244122 68358.678917 6176.475498 8964.873991 63733.731973 6681.012749 7796.227100 13566.877068 -333.275830 5799.320209 5880.010612 11894.520820 12905.133992 55200.237554 8786.653126 17008.416719 8441.460077 12342.776172 11322.719645 6131.753410 8552.626931 8413.755011 5382.019551 -14026.529765 7031.996785 10277.886308 7051.888093 10577.090742 5398.241487 32928.578622 10046.626499 11465.581352 12400.528073 11264.146343 22958.012631 11387.002332 10503.015614 11687.269122 12621.557804 11868.823725 10037.480878 6731.800033 14589.350874 7005.682326 -15256.930904 43642.611606 -5506.124096 6974.291085 6442.566508 1483.515153 -16669.153846 12241.267939 14094.252115 7356.367960 20141.122744 76934.235332 11471.922585 14673.176983 18827.163171 48636.225453 39149.558959 2010.718539 7606.174422 9157.136762 7429.913068 12550.065918 7694.858622 30473.384863 10062.903147 14826.014779 8507.766511 8479.616263 13370.624669 11257.783095 25714.607380 13777.543457 7630.908468 15848.915110 20402.356987 8262.261316 -656.181239 -10578.365254 11179.327928 2624.063252 7353.849076 6526.953106 6188.106530 12555.877298 11442.919028 8590.417428 -9937.292423 10437.542868 7798.263054 11102.955245 9434.305844 16021.510063 12488.887320 10489.970677 26255.032167 -601.480801 11330.962430 7242.896034 5733.646431 9716.884224 10171.558909 8270.537418 7201.886958 7546.839572 8016.853153 7011.914228 10991.163537 10029.257295 8289.162337 13645.209195 11104.487416 23573.859307 9243.134527 17050.090724 16273.182175 7484.293066 38267.278978 7569.084693 7956.369532 11247.627752 9551.522131 6372.254434 10992.753878 6928.227958 6263.686267 8473.486220 7782.199528 9251.072645 16658.578853 6791.495375 14372.028368 15710.853878 15180.920074 19373.866000 12359.446131 6277.957048 7656.059281 7713.244485 7784.393227 8508.943358 7138.047041 10474.778382 8631.242255 9785.227759 6493.401100 11338.872187 9805.460983 11289.911641 11256.092265 8525.969819 16651.462021 13911.697382 15176.557068 13343.889490 14348.408881 6833.823000 7279.900420 8282.450633 8741.775576 9035.424041 9563.413919 9093.093687 8163.157856 9077.540427 9281.828983 12750.818046 11748.212219 27053.021033 11682.508900 12439.268186 14919.504655 15589.869164 12060.329675 12570.979066 13502.288416 8742.471968 13168.975811 10014.992041 10057.249984 6860.573484 4715.464128 8008.366576 7417.225503 8453.400204 9760.602853 16533.111760 12010.308864 15657.078479 13353.608181 14888.303064 16707.990594 15939.332285 15976.350164 35136.444718 76083.124629 10289.253376 6714.095414 7042.017265 7775.496689 7660.764461 10142.648247 10929.378102 11418.887882 10697.315125 9378.798044 11075.143696 18349.423843 13911.406401 18517.833508 12974.162425 15789.908627 15300.237679 13225.352711 15322.564725 45406.491906 9895.702354 10624.333529 6225.032248 9241.641778 10459.729567 15500.044111 15734.037195 15636.162992 13334.825288 11009.554825 15204.567349 15346.441500 13915.669430 13871.621108 11082.948596 17124.415856 14645.119563 17664.673068 16360.491095 12646.501773 10292.659941 7729.364978 8292.566035 9488.296340 11384.482825 9610.772186 11750.562943 10109.543109 8615.171775 12587.079016 15258.030098 13781.610485 16949.487039 13588.596604 17080.741606 15610.938706 13136.131076 12541.865926 58754.929437 14185.493856 8264.664279 11351.309013 8803.631960 9586.226710 10924.959957 9103.429855 13711.277400 12903.548202 9615.773265 10962.906343 14993.050039 11975.390530 13529.264476 15031.600188 16700.944372 17336.791315 19002.622060 17198.662691 13915.328304 10876.374085 9421.729444 9217.011091 10444.552387 7131.214376 9265.376001 9199.367107 11988.125299 9681.626398 12671.862243 10774.673578 12542.654748 11158.083141 11621.853593 17193.000282 12563.973835 17239.297107 17356.847935 14965.736769 14718.497953 13014.379658 9486.545189 6671.331412 7369.628207 8801.603079 9118.560513 8320.326641 8528.190389 11669.947633 7721.221114 9932.871505 13152.896579 13248.190582 12738.228062 16520.735244 14026.355382 17484.108184 15618.305818 18633.206955 15748.143236 17021.575360 9180.332385 7827.070875 10688.622724 5474.439564 6291.789108 6788.157767 10470.243948 11791.945222 12627.608415 11758.030347 10152.515559 10006.966138 17030.979190 11436.885569 15084.856073 14592.000802 16714.156989 15963.261915 14814.019904 15141.947392 8702.348049 8185.061550 7577.611531 7232.109378 9347.322671 9820.402418 11807.567394 9457.788048 13179.243871 10266.209596 13120.571308 13988.437073 13930.542700 18644.092263 14568.036576 17880.538351 17794.028644 18439.892344 16654.286895 17168.736119 7608.619536 12148.176931 10927.953398 9143.295408 10083.233329 10559.238796 9216.155069 13883.675672 7940.267089 12733.052727 12525.534609 12447.426239 15728.803764 15546.546479 15680.920420 14290.072324 15055.822232 15503.646330 18642.148912 17211.974818 11777.178703 9665.992428 6902.210954 8136.889028 5003.293910 10586.217216 10160.069662 9163.113717 11896.853288 13737.036828 13336.538986 13131.840811 14067.938838 14649.035693 18744.540235 19221.893145 15556.323196 18223.440985 17146.064293 16213.485542 6823.416709 5777.652951 7625.414457 5924.783447 5723.626517 6675.828217 8712.871292 11107.081390 10754.415031 14663.029948 14219.781199 13089.331143 9652.730446 12694.112617 14111.702676 18315.737767 17937.278144 16089.415498 17187.649019 16871.772475 5118.342974 6418.635656 3619.523431 8529.155697 8769.169554 9066.476759 9184.454545 7847.863857 8272.407142 12837.520819 8752.102348 10475.056714 15598.326996 15597.484915 15449.081663 15393.420155 14679.022209 16572.490125 14968.972210 18216.787919 759.269650 5520.912249 3803.574364 6275.523515 6600.412397 7743.275828 6813.519034 8034.796945 9057.809673 10978.483585 7852.283078 13444.999576 9829.606268 16915.011431 17196.390872 15901.781110 14890.310687 17382.958204 13323.525866 17460.590261 605.044646 2025.420480 1564.163627 4689.017593 3279.791692 6643.257462 6609.558489 6941.742333 7039.009913 10573.051137 9913.217801 9349.309569 11061.022944 11246.210361 13584.614482 15919.144980 14385.752374 16265.666161 17558.285472 17054.532027 793.602516 1625.627401 919.181213 2472.690664 5154.386457 4064.075853 8047.292660 5290.344005 7302.126948 7844.272977 7619.087838 7351.008404 8598.382948 12396.064308 11541.326936 16286.495273 14129.968557 16234.102315 17940.871107 17954.392632 673.172258 644.838901 1918.568155 2001.497741 2454.232586 6340.333885 5205.069157 6068.465227 7489.379084 8314.602664 8132.832932 9203.450476 14506.105381 10434.075285 11434.014375 15635.211315 13223.469037 14853.998234 18245.061463 15022.147088 712.167992 1667.261490 1569.862729 1096.781178 3274.486795 5759.619218 3990.875498 6287.510228 7282.252505 7284.628226 7966.244523 9623.556826 8508.600473 9845.871763 12436.779566 11589.386392 12636.726870 16878.678061 17612.913513 17437.861932 710.542608 672.232655 2452.022811 1841.440982 3416.101311 4787.158837 4640.253917 4927.048864 7958.610060 8867.478148 10235.135599 10828.627969 8336.635297 12077.128827 12993.119557 17164.819040 17689.390342 16057.835985 12288.582399 11403.179219 1172.507440 1606.444328 867.413177 2196.537732 3676.330362 3390.009247 4064.906782 4651.619107 4869.101247 6681.033775 9121.813827 9878.509663 10700.258568 9554.258308 10549.798252 14907.773592 15959.581511 16456.346315 14950.553730 18390.375288 32713.923567 789.687749 770.567010 726.478298 3320.152026 3187.49