<VTKFile type="PolyData">
<PolyData>
<Piece NumberOfPoints="6715" NumberOfVerts="6715" NumberOfLines="0" NumberOfStrips="0" NumberOfPolys="0">
<PointData>
<DataArray type="Float64" Name="Pressure" format="ascii">
 14207.866435 14611.910089 14518.647510 13400.708077 12099.799082 11147.974271 9838.722265 7805.445563 5827.425546 4254.270836 3272.153560 3379.537139 3096.165045 1959.539108 5661.007498 17064.396168 16934.160595 2940.032935 -5773.837778 -7988.170483 -3481.380143 3646.918045 7888.575877 7439.047920 6251.464484 7026.731302 8677.304974 9196.142869 9279.289490 9780.959693 10258.689711 10344.952327 10342.308338 10344.201586 10546.144917 10875.395708 11240.265811 11523.236571 11804.586736 12219.695827 12870.368028 13732.170074 14785.849207 15365.138110 15300.065392 14825.844043 14636.288449 14925.555263 14939.366108 14505.960387 13975.062891 13577.491774 13409.488318 13732.148417 14761.838521 15966.444277 16759.813379 16839.660240 16587.609585 16580.966128 16727.864702 16910.161910 17054.720643 17103.043661 17078.027095 17165.786426 17541.403418 18008.168180 18119.703372 17898.337102 17714.920917 17786.503302 18190.505633 18798.144043 19150.726596 19169.945494 19252.273842 19591.322796 20044.109641 20358.513733 20500.720954 20497.042411 20268.248928 19963.818649 19881.010846 19967.767928 20130.382072 20320.329479 20465.347302 20373.512552 20241.434782 20245.096228 20234.221301 20005.526112 19698.896044 19577.768071 19822.048930 20245.744019 20524.685594 20564.946053 20474.085425 20375.129434 20265.702412 20145.822473 19852.040413 19358.265137 18875.405943 18517.600719 18041.671095 17653.710570 17489.579449 17626.148210 17993.951833 18219.781636 18374.781557 18549.434031 18586.135048 18551.670251 18813.330603 19153.602600 19062.506402 18722.249655 18411.053171 18193.898952 18146.427439 18239.644587 18367.798399 18462.582336 18521.723108 18651.650223 18860.073673 18981.793126 19129.556977 19389.010169 19442.541932 19415.583919 19457.019656 19429.317806 19361.998214 19474.158566 19639.590147 19760.007114 19855.903957 19817.946226 19643.294049 19502.857118 19532.811137 19670.501020 19769.249539 19793.196158 19850.386134 19927.440737 19898.053817 19644.326024 19356.226784 19106.588984 18825.893212 18521.551210 18245.604931 17991.969146 17765.738821 17515.233799 17269.643124 17133.502382 17130.454446 17144.052830 16988.670187 16589.217846 16295.078013 16288.939853 16461.702087 16609.783736 16562.471651 16532.753874 16518.741350 16579.873318 16631.604737 16634.876935 16556.682868 16407.249159 16221.318616 16044.018394 15924.840755 15940.479390 16140.757724 16437.795885 16732.633361 16864.517420 16814.855167 16695.010534 16659.019252 16644.349497 16495.647562 16218.420206 16016.917873 16061.266771 16237.992937 16417.626570 16535.289128 16658.257706 16834.235249 13503.654934 13762.981225 14032.732927 13845.184731 12982.311228 11957.209483 10961.202844 9589.491203 7870.209331 6351.061564 5123.332356 4060.409465 3378.524525 3046.002434 2503.106393 4130.756538 8919.311695 10885.647603 6319.702687 1168.581814 -1479.311698 126.231910 3374.663229 5355.935770 5940.545093 6587.503018 7821.904734 8911.373671 9335.759262 9512.518707 9835.068972 10129.933340 10204.823481 10179.939087 10236.350175 10519.936457 10922.129484 11285.606788 11572.157389 11863.865868 12230.382786 12816.679533 13642.926914 14501.276717 14986.594550 14940.301369 14515.569338 14176.565990 14057.945661 13937.239952 13695.110566 13406.160044 13198.337163 13166.444261 13541.876940 14388.795017 15383.418256 16096.403608 16380.522513 16424.339177 16540.731442 16754.571246 16965.033033 17099.173172 17109.901970 17057.188580 17130.355632 17453.641789 17872.066175 18100.595926 18099.449421 18018.239683 18038.410407 18301.263821 18765.949339 19107.008080 19204.213319 19297.532655 19531.169431 19796.423791 19965.084824 20059.930800 20079.339542 19932.354717 19716.272084 19621.997488 19682.671502 19837.124812 20015.633612 20121.169690 20040.322871 19915.460988 19865.030319 19805.518991 19634.863679 19443.871101 19408.086634 19626.674562 19988.300387 20254.890639 20303.602740 20243.745723 20147.267440 20017.438293 19822.871055 19520.317148 19132.671513 18755.100573 18383.390843 17924.806456 17556.418465 17493.677037 17705.695075 17932.021727 18037.154530 18161.529690 18325.831099 18371.322548 18376.263038 18582.079046 18880.711708 18966.383809 18813.024759 18577.701453 18367.359104 18243.875244 18239.401022 18322.275422 18409.539903 18501.458232 18680.908918 18928.560076 19019.528431 19002.522724 18984.057113 18931.539188 18948.526376 19120.904877 19281.500072 19349.212983 19457.279853 19619.072597 19743.011526 19811.009310 19800.410548 19659.948738 19499.303758 19469.751047 19550.286486 19639.686342 19699.510657 19754.141478 19787.220914 19717.961731 19518.899988 19274.075168 19010.667591 18740.152492 18480.891973 18249.831635 18045.136577 17829.032078 17582.884728 17365.489932 17255.418240 17238.621326 17192.290618 17007.989869 16703.065448 16468.544267 16477.001976 16656.879641 16792.221129 16760.757192 16685.117818 16668.842086 16697.606963 16709.798732 16688.915924 16618.363149 16505.654690 16378.266210 16254.623479 16170.224867 16191.442310 16376.323735 16664.460802 16929.151660 17072.419688 17100.031954 17064.763430 17016.693872 16936.885659 16762.568215 16536.599152 16383.736737 16414.070347 16569.904443 16722.153138 16838.812284 16946.223238 17055.482355 17159.526022 13134.159528 13252.088461 13443.702072 13539.432684 13253.827338 12499.367167 11560.373707 10540.707805 9241.951568 7765.309708 6434.759331 5276.222885 4183.961169 3385.067044 3145.095316 3088.029045 3405.181950 4904.890812 5977.756364 5157.025422 3113.258937 1732.435481 1768.734485 2530.502089 3635.948431 5052.352047 6659.168985 8120.518365 9037.494876 9413.885947 9635.163174 9870.943317 10021.462215 10023.691933 9998.448527 10126.388079 10450.819134 10861.622791 11218.262470 11514.111292 11802.741075 12161.689586 12719.958094 13482.913322 14219.005749 14642.776620 14645.059622 14327.782099 13960.499201 13702.400930 13517.255394 13335.309610 13163.016091 13074.344892 13163.111036 13538.890109 14218.030699 15030.402047 15697.765156 16077.088198 16264.139789 16450.782652 16693.012903 16934.303268 17091.148738 17132.304496 17132.852379 17228.555803 17496.570518 17839.040119 18069.692297 18150.318478 18148.957122 18167.819151 18336.855888 18676.275902 18984.489595 19139.954958 19250.879469 19421.047598 19602.531772 19723.003544 19790.393584 19801.074311 19712.573119 19579.522168 19514.876148 19552.622874 19652.723311 19775.800421 19839.634563 19785.955155 19680.715851 19598.962281 19514.281966 19395.052766 19302.498899 19335.954789 19530.875999 19819.826548 20073.423393 20178.812964 20147.182667 20029.234139 19856.574147 19625.652738 19332.292123 19010.235315 18711.238942 18421.770273 18088.656404 17807.907372 17745.216816 17853.606435 17937.561338 17958.720632 18031.819184 18154.004401 18228.576618 18290.481192 18460.575250 18700.931054 18831.358419 18768.044128 18591.044405 18402.795618 18268.946845 18244.710841 18308.348333 18384.290004 18501.241154 18702.519858 18956.381629 19095.695900 19097.104724 19027.053860 18950.510542 18971.553122 19116.099363 19272.721837 19370.064241 19472.024744 19625.898587 19760.038789 19814.435224 19770.103079 19625.649119 19480.953780 19433.855013 19480.451611 19555.126198 19613.579886 19650.964088 19648.442018 19563.162410 19395.736742 19181.840152 18933.550456 18678.172749 18447.896981 18253.660920 18081.169434 17885.415083 17659.599531 17467.393459 17364.293871 17307.394450 17206.229745 17015.775477 16782.606711 16610.455506 16604.027593 16738.028754 16847.450337 16845.058517 16785.806412 16752.713690 16740.910105 16728.281433 16697.353824 16634.012406 16549.202118 16462.984812 16379.081913 16325.170091 16363.324821 16531.562446 16779.541165 17004.990983 17145.232464 17210.226441 17221.625516 17179.180107 17074.363461 16908.600934 16735.230964 16636.568313 16661.654228 16769.563696 16885.565947 16983.386165 17073.137201 17163.496050 17244.010407 17284.446562 16834.235249 16448.825388 16024.331668 15676.627566 15278.690554 14805.695339 14224.317485 13604.993908 13003.210719 12397.853619 11719.334396 10895.401191 10091.729563 9342.653039 8660.125012 7988.412034 7418.802523 6888.123983 6880.764661 6976.339344 6844.578672 6449.731373 5971.265776 5462.723287 4957.210556 4492.520247 4087.417350 3736.219141 3428.140596 3155.512391 2912.803916 2695.897427 2501.455735 2326.606565 2168.787306 2025.686912 1895.237188 1775.618830 1665.263655 1562.846890 1467.270077 1377.637666 1293.230592 1213.479406 1137.938600 1066.263066 998.187110 933.506204 872.061441 813.726601 758.397645 705.984406 656.404256 609.577459 565.423957 523.861342 484.803746 448.161467 413.841108 381.746093 351.777405 323.834455 297.815982 273.620945 251.149336 230.302917 210.985835 193.105134 176.571153 161.297820 147.202849 134.207856 122.238405 111.223995 101.097999 91.797572 83.263527 75.440195 68.275278 61.719686 55.727384 50.255225 45.262802 40.712294 36.568321 32.797805 29.369836 26.255546 23.427989 20.862024 18.534201 16.422659 14.507008 12.768215 11.188413 9.750530 8.437231 7.227723 6.082704 4.963573 4.374187 17159.526022 16961.638097 16628.976645 16233.234449 15853.125923 15444.458349 14953.677349 14375.897609 13761.961448 13145.210790 12491.764140 11765.533633 10990.094854 10235.967282 9509.818819 8840.000874 8223.199434 7696.663531 7282.134221 7088.737797 6968.684811 6746.398038 6377.503417 5923.281074 5430.365607 4936.414252 4482.048467 4082.751774 3733.654556 3426.420984 3154.159591 2911.661896 2694.907749 2500.592375 2325.855258 2168.137463 2025.128283 1894.759017 1775.210090 1664.913565 1562.545386 1467.008119 1377.407387 1293.025319 1213.293613 1137.767815 1066.103755 998.036560 933.362398 871.922946 813.592456 758.267260 705.857477 656.280687 609.457296 565.307336 523.748446 484.694773 448.056605 413.740520 381.649907 351.685707 323.747287 297.733346 273.542802 251.075616 230.233517 210.920629 193.043978 176.513888 161.244277 147.152855 134.161233 122.194978 111.183589 101.060445 91.762704 83.231186 75.410230 68.247543 61.694044 55.703703 50.233382 45.242679 40.693781 36.551314 32.782204 29.355549 26.242487 23.416075 20.851178 18.524355 16.413750 14.499000 12.761127 11.182452 9.746508 8.437989 7.242969 6.152267 5.178454 4.532567 4.264670 17284.446562 17213.038225 17016.440382 16701.802647 16342.877174 15962.283800 15537.744959 15038.265127 14465.361615 13847.789398 13204.105821 12522.936707 11794.091484 11042.119773 10303.796125 9598.017858 8940.033017 8346.491547 7836.988811 7441.211884 7168.872949 6948.051204 6676.812890 6314.390446 5876.870670 5397.937853 4919.930930 4477.157729 4082.505326 3734.713214 3427.722596 3155.393175 2912.768494 2695.886851 2501.452731 2326.605737 2168.787071 2025.686845 1895.237169 1775.618825 1665.263654 1562.846890 1467.270077 1377.637666 1293.230592 1213.479406 1137.938600 1066.263066 998.187110 933.506204 872.061441 813.726601 758.397645 705.984406 656.404256 609.577459 565.423957 523.861342 484.803746 448.161467 413.841108 381.746093 351.777405 323.834455 297.815982 273.620945 251.149336 230.302917 210.985835 193.105134 176.571153 161.297820 147.202849 134.207856 122.238405 111.223995 101.097999 91.797572 83.263527 75.440195 68.275278 61.719686 55.727384 50.255225 45.262802 40.712294 36.568321 32.797805 29.369836 26.255546 23.427990 20.862027 18.534211 16.422689 14.507109 12.768545 11.189493 9.754065 8.448807 7.265482 6.209099 5.316007 4.648092 4.304765 4.204734 4.374187 4.010864 3.437466 2.983478 2.604409 2.275650 1.987423 1.733995 1.511133 1.315312 1.143448 0.992799 0.860919 0.745620 0.644951 0.557172 0.480733 0.414258 0.356523 0.306448 0.263072 0.225550 0.193134 0.165166 0.141070 0.120335 0.102517 0.087226 0.074121 0.062904 0.053317 0.045132 0.038155 0.032216 0.027165 0.022877 0.019241 0.016162 0.013559 0.011359 0.009505 0.007942 0.006628 0.005524 0.004598 0.003822 0.003173 0.002631 0.002178 0.001801 0.001488 0.001227 0.001011 0.000831 0.000683 0.000560 0.000459 0.000375 0.000307 0.000250 0.000204 0.000166 0.000135 0.000109 0.000089 0.000072 0.000058 0.000047 0.000038 0.000030 0.000024 0.000019 0.000016 0.000012 0.000010 0.000008 0.000006 0.000005 0.000003 0.000002 0.000002 0.000001 -0.000000 -0.000001 -0.000002 -0.000002 -0.000003 -0.000005 -0.000006 -0.000008 -0.000009 -0.000012 -0.000015 -0.000018 -0.000023 -0.000028 -0.000035 -0.000043 -0.000053 -0.000065 -0.000080 -0.000098 -0.000120 -0.000147 -0.000180 -0.000219 -0.000266 -0.000324 -0.000393 -0.000477 -0.000577 -0.000698 -0.000843 -0.001016 -0.001224 -0.001472 -0.001767 -0.002120 -0.002539 -0.003036 -0.003626 -0.004325 -0.005152 -0.006128 -0.007280 -0.008635 -0.010230 -0.012102 -0.014297 -0.016868 -0.019873 -0.023382 -0.027474 -0.032236 -0.037774 -0.044201 -0.051652 -0.060277 -0.070246 -0.081752 -0.095012 -0.110273 -0.127810 -0.147934 -0.170993 -0.197376 -0.227519 -0.261908 -0.301083 -0.345645 -0.396261 -0.453669 -0.518685 -0.592209 -0.675233 -0.768845 -0.874240 -0.992726 -1.125732 -1.274816 -1.441673 -1.628144 -1.836224 -2.068071 -2.326013 -2.612555 -2.930392 -3.282411 -3.671698 -4.101549 -4.575470 -5.097187 -5.670642 -6.300005 -6.989668 -7.744248 -8.568581 -9.467725 -10.446947 -11.511722 -12.667716 -13.920777 -15.276922 -16.742315 -18.323246 -20.026113 -21.857389 -23.823599 -25.931282 -28.186959 -30.597102 -33.168103 -35.906278 -38.817977 -41.910043 -45.191414 -48.678596 -52.413570 -56.543026 -61.311196 -64.151519 4.264670 4.144873 3.821930 3.378226 2.965618 2.597779 2.272496 1.985441 1.732482 1.509865 1.314211 1.142479 0.991944 0.860164 0.744954 0.644365 0.556656 0.480280 0.413860 0.356175 0.306143 0.262806 0.225317 0.192931 0.164991 0.140917 0.120202 0.102402 0.087127 0.074035 0.062830 0.053253 0.045078 0.038108 0.032175 0.027131 0.022848 0.019216 0.016141 0.013540 0.011344 0.009491 0.007931 0.006619 0.005516 0.004591 0.003817 0.003169 0.002627 0.002175 0.001799 0.001485 0.001225 0.001009 0.000830 0.000682 0.000559 0.000458 0.000375 0.000306 0.000250 0.000204 0.000166 0.000135 0.000109 0.000089 0.000072 0.000058 0.000047 0.000038 0.000030 0.000024 0.000019 0.000016 0.000012 0.000010 0.000008 0.000006 0.000005 0.000003 0.000002 0.000002 0.000001 -0.000000 -0.000001 -0.000002 -0.000002 -0.000003 -0.000005 -0.000006 -0.000007 -0.000009 -0.000012 -0.000015 -0.000018 -0.000023 -0.000028 -0.000035 -0.000043 -0.000053 -0.000065 -0.000080 -0.000098 -0.000120 -0.000147 -0.000179 -0.000218 -0.000266 -0.000323 -0.000393 -0.000476 -0.000576 -0.000697 -0.000842 -0.001015 -0.001222 -0.001470 -0.001765 -0.002117 -0.002535 -0.003032 -0.003621 -0.004320 -0.005145 -0.006120 -0.007270 -0.008624 -0.010217 -0.012087 -0.014280 -0.016848 -0.019850 -0.023356 -0.027443 -0.032201 -0.037733 -0.044155 -0.051599 -0.060216 -0.070176 -0.081672 -0.094921 -0.110169 -0.127692 -0.147800 -0.170841 -0.197205 -0.227326 -0.261690 -0.300838 -0.345369 -0.395952 -0.453323 -0.518298 -0.591777 -0.674751 -0.768308 -0.873644 -0.992065 -1.125000 -1.274007 -1.440780 -1.627160 -1.835141 -2.066882 -2.324709 -2.611129 -2.928834 -3.280712 -3.669849 -4.099540 -4.573291 -5.094827 -5.668093 -6.297255 -6.986708 -7.741066 -8.565168 -9.464071 -10.443044 -11.507560 -12.663286 -13.916073 -15.271936 -16.737041 -18.317679 -20.020250 -21.851228 -23.817138 -25.924521 -28.179896 -30.589728 -33.160380 -35.898072 -38.808833 -41.898448 -45.172385 -48.635526 -52.290501 -56.119945 -59.988489 -62.726777 -63.799302 4.204734 4.170529 4.020263 3.714044 3.337914 2.953475 2.595225 2.272846 1.986567 1.733733 1.511053 1.315288 1.143440 0.992797 0.860918 0.745620 0.644951 0.557172 0.480733 0.414258 0.356523 0.306448 0.263072 0.225550 0.193134 0.165166 0.141070 0.120335 0.102517 0.087226 0.074121 0.062904 0.053317 0.045132 0.038155 0.032216 0.027165 0.022877 0.019241 0.016162 0.013559 0.011359 0.009505 0.007942 0.006628 0.005524 0.004598 0.003822 0.003173 0.002631 0.002178 0.001801 0.001488 0.001227 0.001011 0.000831 0.000683 0.000560 0.000459 0.000375 0.000307 0.000250 0.000204 0.000166 0.000135 0.000109 0.000089 0.000072 0.000058 0.000047 0.000038 0.000030 0.000024 0.000019 0.000016 0.000012 0.000010 0.000008 0.000006 0.000005 0.000003 0.000002 0.000002 0.000001 -0.000000 -0.000001 -0.000002 -0.000002 -0.000003 -0.000005 -0.000006 -0.000008 -0.000009 -0.000012 -0.000015 -0.000018 -0.000023 -0.000028 -0.000035 -0.000043 -0.000053 -0.000065 -0.000080 -0.000098 -0.000120 -0.000147 -0.000180 -0.000219 -0.000266 -0.000324 -0.000393 -0.000477 -0.000577 -0.000698 -0.000843 -0.001016 -0.001224 -0.001472 -0.001767 -0.002120 -0.002539 -0.003036 -0.003626 -0.004325 -0.005152 -0.006128 -0.007280 -0.008635 -0.010230 -0.012102 -0.014297 -0.016868 -0.019873 -0.023382 -0.027474 -0.032236 -0.037774 -0.044201 -0.051652 -0.060277 -0.070246 -0.081752 -0.095012 -0.110273 -0.127810 -0.147934 -0.170993 -0.197376 -0.227519 -0.261908 -0.301083 -0.345645 -0.396261 -0.453669 -0.518685 -0.592209 -0.675233 -0.768845 -0.874240 -0.992726 -1.125732 -1.274816 -1.441673 -1.628144 -1.836224 -2.068071 -2.326013 -2.612555 -2.930392 -3.282411 -3.671698 -4.101549 -4.575470 -5.097187 -5.670642 -6.300005 -6.989668 -7.744248 -8.568581 -9.467725 -10.446947 -11.511722 -12.667716 -13.920777 -15.276922 -16.742314 -18.323246 -20.026112 -21.857389 -23.823598 -25.931277 -28.186942 -30.597046 -33.167920 -35.905682 -38.816037 -41.903721 -45.170821 -48.611486 -52.195475 -55.821149 -59.207914 -61.898524 -63.256021 -63.605181 -64.151519 -67.708242 -74.186335 -80.446021 -86.684525 -93.060360 -99.610072 -106.340634 -113.249282 -120.329644 -127.573576 -134.971711 -142.513646 -150.188001 -157.982463 -165.883834 -173.878074 -181.950372 -190.085220 -198.266501 -206.477593 -214.701483 -222.920889 -231.118388 -239.276540 -247.378013 -255.405678 -263.342690 -271.172545 -278.879129 -286.446816 -293.860688 -301.107031 -308.174267 -315.054509 -321.745809 -328.254929 -334.599944 -340.811202 -346.928137 -352.988602 -359.007736 -364.946640 -370.679920 -375.988268 -380.619743 -384.458954 -387.792642 -392.337712 -402.951092 -428.436350 -488.403317 -559.073460 -562.758756 -513.845050 -325.474428 -160.288424 -142.419784 -248.145427 -356.498404 -460.224214 -549.042259 -635.583858 -736.669891 -878.481353 -1152.191224 -1251.136469 -851.271651 -303.457352 -1.930807 -403.514880 -969.146155 -1048.842708 -865.120736 -515.328046 -327.383270 -387.645380 -640.338552 -894.601144 -1184.937871 -1412.441246 -1516.808870 -1435.440297 -1160.541757 -923.159872 -720.489799 -367.886939 747.509017 1854.925361 2859.284167 4305.916017 5037.081514 6016.413845 7913.845767 10046.311509 12238.610961 13561.550875 14354.077754 14662.934700 14594.003468 14207.866435 -63.799302 -65.347716 -69.111839 -74.643106 -80.563698 -86.713559 -93.063080 -99.605041 -106.333457 -113.241698 -120.322217 -127.566508 -134.965097 -142.507543 -150.182456 -157.977520 -165.879530 -173.874445 -181.947451 -190.083035 -198.265075 -206.476944 -214.701624 -222.921827 -231.120123 -239.279068 -247.381325 -255.409760 -263.347527 -271.178120 -278.885421 -286.453795 -293.868304 -301.115193 -308.182814 -315.063176 -321.754200 -328.262513 -334.606123 -340.815487 -346.930496 -352.989964 -359.010558 -364.955154 -370.699260 -376.021346 -380.663620 -384.509627 -387.865899 -392.173366 -401.649016 -424.260179 -467.481292 -522.472820 -537.783999 -470.631450 -322.415452 -168.762081 -132.804344 -241.982524 -373.998215 -460.354914 -527.280453 -626.977069 -768.621186 -948.661486 -1171.542685 -1333.554825 -1245.585120 -951.967242 -757.719212 -868.253734 -985.606515 -916.411189 -696.867351 -464.609516 -390.395276 -487.156722 -691.769802 -927.475659 -1181.187591 -1395.823979 -1483.011258 -1427.258735 -1218.020817 -980.609458 -723.720537 -283.842910 742.455514 2047.429366 3475.629253 4995.050025 5984.687073 7229.455608 8971.276705 10867.293301 12716.832920 14128.702962 14886.050365 14994.336472 14613.030339 13985.807006 13503.654934 -63.605181 -64.167329 -66.144623 -69.984373 -74.992044 -80.688422 -86.759158 -93.083259 -99.617101 -106.342792 -113.249944 -120.329848 -127.573638 -134.971731 -142.513652 -150.188002 -157.982464 -165.883834 -173.878074 -181.950372 -190.085220 -198.266501 -206.477593 -214.701483 -222.920889 -231.118388 -239.276540 -247.378013 -255.405678 -263.342690 -271.172545 -278.879129 -286.446816 -293.860688 -301.107031 -308.174267 -315.054509 -321.745810 -328.254930 -334.599948 -340.811212 -346.928165 -352.988678 -359.007948 -364.947185 -370.681099 -375.990615 -380.628024 -384.503767 -387.980003 -392.431315 -401.543169 -421.971891 -458.797893 -502.512846 -516.917764 -456.861047 -326.701185 -202.287148 -182.274546 -270.059132 -379.056014 -458.465088 -527.609954 -625.799647 -769.288451 -955.154192 -1159.608868 -1312.317846 -1317.805783 -1176.513637 -1043.878086 -1010.467605 -972.595930 -835.271682 -622.268554 -442.302681 -403.000096 -509.100786 -701.058032 -926.419795 -1158.918088 -1349.346695 -1429.270039 -1380.536213 -1218.125564 -990.629855 -678.795418 -118.534926 891.583670 2213.411269 3675.210157 5138.094271 6369.097776 7770.551162 9431.557716 11182.895726 12875.834227 14248.028424 15019.089451 15098.342029 14654.363208 13959.916049 13384.698171 13134.159528 8249.072383 2987.316024 5923.969574 6999.464804 4119.309278 -584.260255 6614.272188 4469.853007 6833.360908 1813.221165 5481.797909 4804.778059 3527.864917 7352.897437 10588.941631 4006.262945 10897.432565 14683.283040 13877.724875 14674.779757 6665.809887 -1018.462305 4959.178847 6445.787581 7212.042932 3020.755950 6605.224305 3843.667703 5719.198092 8847.484094 6700.538247 6425.688624 7914.468501 5583.271585 7170.930320 13514.891479 7016.806533 7890.776855 11825.956865 12355.424241 4275.123590 2392.612719 7377.735549 7295.812858 4405.206674 9474.768042 -13536.578553 4585.323487 9480.428108 1914.266699 8857.306632 4170.166704 -14079.443106 11126.865508 7870.454930 13941.762519 10104.177002 10824.887352 14383.697589 12674.902556 453.658889 4595.391779 5101.901981 5089.345824 7891.020955 4718.699344 3949.983020 5718.104004 7266.434508 8115.463235 14253.014557 2601.081225 5276.050571 6254.709915 8737.333062 10391.945754 10645.820687 14650.917491 12465.361489 11870.947384 -1222.482487 -10921.943410 8015.306347 5527.728220 -3439.873947 9501.486544 2154.592052 -7668.651252 5314.875871 2880.083621 9766.210220 6133.118019 1313.304502 3963.395257 3139.253654 11974.244816 7819.781176 -2376.915757 10929.589444 10154.255134 906.854320 10545.212397 -14437.961936 4326.824157 6940.014802 8052.972209 9408.323340 -253.347814 6127.035362 4107.131932 3290.529645 7167.537544 12224.962096 2353.003792 -1965.074946 10394.269528 5792.014769 6598.572885 6459.022465 8138.908763 -13229.602570 7490.822716 7368.268010 8050.212459 9554.192658 4037.564189 10421.535368 3969.407362 -6369.657578 11926.654109 5393.625233 5970.481228 6731.096819 6878.364851 -2340.518709 6656.853837 3917.170296 9980.869764 9458.057982 8473.297402 -11037.891562 -11208.598286 21711.679263 8886.591584 7869.123153 7801.498090 -8047.866653 10075.656188 9130.932111 8312.016121 5060.022030 2371.687303 7857.836524 23398.605882 4719.544800 10198.676180 9979.068676 4437.104022 -576.020516 7804.068837 8184.538254 7485.414910 7968.549351 26844.732292 -213.050986 3138.159155 9375.612032 20503.321184 3267.138750 5088.610970 -5948.385701 3700.625921 2869.040656 2326.371130 9932.223017 3637.528542 6729.407093 7513.150523 10146.150933 10017.435877 -9140.837781 9898.055504 6720.744763 11115.756674 6647.133407 -3291.140701 17633.908223 -10373.812479 7903.355321 10496.724340 -8788.584348 1721.060355 10380.062157 -225.926833 6867.704144 4625.339732 -9589.507859 -7075.215307 10582.707733 2846.059251 7402.809818 8505.396762 12188.384543 8093.642356 7002.455710 7439.332958 4052.524080 8415.809836 4741.653158 -2168.762181 9943.021884 10617.578916 10250.829554 13161.897957 9828.251296 26900.465191 9388.897986 8430.935492 6419.096316 10377.992490 8661.665964 12814.469078 25759.324825 10753.452564 3006.594058 6310.289229 9935.937318 6550.905763 9590.573070 11489.977776 10603.468979 -11229.921858 7278.886699 6928.256717 9409.165190 9237.237291 13728.082423 7018.582242 9736.161689 -8142.051530 26850.899987 12216.148617 7242.893556 6028.719619 9108.590658 -11527.533193 10693.527173 10631.294116 9937.180545 8306.095256 7672.424788 8794.388316 7761.338113 8627.225976 10063.719334 8071.860866 -9477.232005 13456.649325 13814.997089 10051.936597 7307.726089 6947.281679 8558.173859 10175.253216 4736.615343 8492.725856 11335.244605 7798.976484 8309.787565 10423.386426 5022.214860 9308.173568 10090.746471 11524.981988 6187.804400 9275.614167 11260.273054 12241.813542 -4841.450563 3003.591261 8094.551078 10941.800837 8266.176819 9545.623984 11512.440357 6466.841584 13326.817942 7227.144882 9051.256981 6821.157529 8550.020074 8348.155160 7787.615977 10871.304346 7030.475772 10654.535022 13156.907105 10000.230221 12081.271331 13511.096815 7431.585724 10085.453232 8161.608050 -7492.179606 8286.113614 8258.409654 10408.767598 8178.208683 8805.126965 9596.108817 11356.858779 12425.473242 -11040.179007 7829.961520 7504.697740 8144.925612 11330.463405 8362.217967 8055.726259 14008.085944 7427.199524 10731.641454 15419.320218 9045.723114 8745.676816 8181.352693 8198.698647 7941.898881 11695.617683 9320.605874 14130.651113 12721.136012 13562.377388 10571.306990 9684.231569 13940.528423 8837.177778 -2846.196581 3251.352341 -9397.706269 10769.605487 9977.143572 6420.975045 7356.796436 7049.804564 7773.908557 14327.971081 13956.143898 13823.088752 10960.705013 8715.127621 12334.317170 8510.746399 14823.758790 11986.052160 12997.956566 7391.017095 15760.987607 12012.910328 -3923.181270 13152.107578 13932.452912 8799.854498 13265.721412 13879.731226 15198.882946 14719.609707 15495.216411 11987.425920 9434.475065 9657.202729 15525.694431 11597.699217 13944.389052 12279.010093 10225.550466 14546.318749 11087.377367 12416.532888 8833.086844 12712.581874 8945.242204 12713.439929 13843.113229 12826.544534 10638.747001 12816.432919 9339.694933 7514.668708 14115.824285 17035.001753 15322.923921 14573.361404 13208.772955 13564.000816 13493.419470 12539.368064 9898.011649 1952.526617 8367.842451 11442.557784 8893.761610 14267.152572 11010.997106 8581.466063 14042.999201 14802.540321 10086.482085 10161.405542 12447.556198 13899.960877 9996.904639 15182.231726 10228.067689 15768.612509 13668.803532 15178.504960 14909.245459 13009.171508 8563.835259 15003.863289 10691.469252 12690.412326 7986.150517 7365.158042 10854.581590 13249.855729 11792.779358 13378.158969 10592.209692 12802.306347 14254.455186 11301.062636 16107.868529 14504.951106 15040.109868 14322.796892 11638.051221 11190.908496 8433.485050 13703.951226 8636.012517 8910.003244 8368.114254 9281.986298 9138.273734 8333.617717 15048.133237 6618.485199 9153.159274 15334.772840 10429.975625 14969.505384 15832.603243 14174.820831 14379.921961 15751.836196 12808.762893 5651.954171 15052.783307 14916.816782 11622.639338 10871.912272 8506.877878 12441.874720 7068.878064 12008.584035 14938.260848 16769.537871 9698.208688 12177.611390 11713.204224 15379.945839 15351.596242 15775.793821 15124.506061 9367.013972 16325.949610 11174.808704 7751.322616 11848.667854 17696.178304 12054.273056 11715.009601 16567.748598 9669.090041 16764.340621 12679.190396 14141.919517 15999.472345 15595.309060 13897.570756 16241.680596 15653.346442 15624.376812 13648.338711 14198.718997 15815.232074 9461.408025 14100.100582 10845.088413 15910.401412 15779.102789 15472.729304 14193.104847 16361.459591 13986.186246 17379.544571 12902.011586 17410.898449 17065.526257 16194.100897 15593.702446 17131.044437 15086.541043 12680.114178 17419.819007 11382.391116 11450.802990 12700.444566 17585.149097 17780.772012 10864.775070 16079.027646 9490.727867 14979.433018 15059.706123 11085.808523 16929.034156 16776.337069 17694.133481 14782.860722 15945.763368 17600.628603 12349.838056 14598.996042 17300.073564 12810.667315 9956.376109 9103.963259 12262.538771 10360.305705 12594.624257 12496.603239 10277.302193 10997.344024 14539.514742 15198.527031 18239.727192 17278.196150 16754.575674 14518.734482 13550.513264 18195.422409 17767.765556 14313.154549 15506.269814 17058.046000 10400.817762 13596.176408 9300.756233 9291.020276 6921.175314 13985.626574 15361.426267 13889.817941 13610.747758 13657.382307 9665.858049 18629.553403 12576.020998 17527.903614 17486.091818 16489.549546 17475.806712 17532.155291 17534.233654 15354.371117 17234.657521 15147.543783 1605.409497 9201.245893 4374.864557 10082.824036 14188.529469 14861.805362 11347.541136 13517.646295 11629.099204 12740.921833 14843.739299 17218.644666 12096.720037 14775.405062 14306.688679 17184.268740 16971.682501 13628.568959 14097.292890 10309.736658 1304.078940 2837.102094 2271.676457 7664.516400 4199.074687 10505.252754 12600.205765 16338.562404 9614.817754 12675.567200 11606.917517 11565.563290 15349.650455 14397.443003 18135.857032 17672.342662 15238.839076 16719.452160 10283.081273 14151.047282 1561.619519 2790.278614 2481.307133 1225.340612 13197.070172 6961.101410 11199.600189 10253.946971 10131.272513 12272.097631 8672.253424 12597.531140 11853.200545 18719.224777 14495.172799 16068.884928 15823.980933 14669.929404 12288.682040 15368.790469 1473.634312 913.558627 2375.500299 2693.286524 3704.885151 7636.126222 8726.917951 10172.695793 10508.215636 11250.286789 8628.960184 12909.786941 18019.086721 12457.397531 14925.359117 17865.659229 16297.435802 13882.633741 12843.609682 13142.586897 2051.005591 2637.700165 5781.697600 1502.511214 4293.538355 9340.323483 6833.436835 7801.933916 10457.230549 8086.766248 12256.188952 12661.178919 11173.275420 11600.152559 15879.598997 15348.989851 15077.791078 15590.755810 10733.382415 10644.349216 1015.711414 1695.103441 1902.171558 2679.714273 6487.388204 5924.521938 8410.946434 11340.753289 10249.481042 11477.592985 12941.227329 14985.116889 13239.592699 17323.201817 17285.506122 16920.583399 14116.822857 16307.852833 16174.150315 16408.250145 6369.998