<VTKFile type="PolyData">
<PolyData>
<Piece NumberOfPoints="6715" NumberOfVerts="6715" NumberOfLines="0" NumberOfStrips="0" NumberOfPolys="0">
<PointData>
<DataArray type="Float64" Name="Pressure" format="ascii">
 4623.739612 3788.813733 3094.897120 2958.443513 3116.963926 3228.556133 3382.232282 3843.152906 4519.207328 4988.886864 4486.386291 3386.352554 2548.907341 -257.730844 -7427.597904 -17553.093304 -24161.234358 -25446.552553 -29260.896230 -35161.247908 -35273.417512 -22713.001410 5883.290470 12142.631343 9495.841010 6589.090050 4436.989912 2710.874272 2187.675215 2422.955099 3304.431441 5331.593063 7387.890321 8529.959851 8748.147575 8506.388654 8450.676882 8744.036562 9124.038678 9150.234566 9039.648880 9150.373771 9223.093260 8980.574604 8558.119303 8296.667904 8523.154641 9528.508429 10834.236705 11722.500027 12225.934018 12662.340311 13189.315745 13345.675108 13008.776531 12696.546203 12660.850372 12832.929727 13176.897834 13623.764553 14047.266229 14329.649228 14461.733012 14465.167304 14449.875904 14600.084371 15106.171351 16011.797437 16736.698971 16922.668332 16583.419042 16024.739488 15607.869776 15588.729452 15803.016974 15953.315944 16081.398192 16453.081708 16788.055666 16857.707941 16662.066403 16487.589575 16561.955490 16770.784906 16915.830854 17048.573852 17082.711131 17088.284041 17199.571978 17362.124792 17466.486833 17567.250453 17856.354091 18200.993367 18374.682528 18297.742404 18164.843738 18286.244554 18369.873382 17986.305801 17264.386726 16757.422726 16987.192416 17604.179007 17754.960410 17474.431326 17142.582872 16816.457082 16692.670804 16871.078786 17070.315754 17153.324131 17329.898002 17433.517358 17314.131392 17159.973737 17258.931154 17483.042010 17333.207091 17032.462656 16820.222628 16674.685324 16624.633694 16828.755427 17214.154749 17559.338796 17838.499134 18041.128047 18089.420131 17932.882889 17742.554865 17751.694675 17975.907035 18285.297438 18453.556607 18507.497598 18538.130462 18493.043566 18379.066425 18370.492003 18297.287638 17928.712153 17358.002981 16925.856961 17055.822942 17347.437388 17520.972542 17606.272385 17634.075086 17556.968976 17460.425455 17321.823341 17179.626039 17049.167662 16981.713176 16944.402717 16805.151292 16589.097496 16399.617378 16274.169925 16218.517431 16200.095197 16170.374080 16114.154342 15958.312250 15714.080924 15501.644443 15391.981846 15394.245250 15534.004987 15617.179358 15586.434534 15473.320779 15168.253897 14976.047230 14994.972798 15127.508143 15296.691080 15387.647342 15176.945950 14744.583872 14338.123559 13997.977067 13744.791397 13599.230986 13544.152574 13495.899518 13407.377399 13295.040396 13145.664717 13013.302022 12878.948482 12763.815587 12693.047540 12659.988963 12513.858976 12152.863674 11646.862128 11088.046362 10485.999237 10003.007247 6501.927058 5723.248091 4932.018666 4377.226261 4130.990066 4071.129964 4042.047411 4003.618408 4085.927514 4310.241290 4364.936902 3809.050383 2807.835089 1795.240829 -324.250451 -5852.232226 -12220.801260 -16954.155921 -19900.482007 -22378.026921 -25647.986445 -24621.812413 -15070.787762 -1910.529260 2784.366911 2447.891996 1641.413632 1152.091548 1039.784557 1628.628486 2723.349600 4110.401737 5769.699391 7245.195188 8116.611242 8441.177497 8485.070666 8536.654391 8726.420892 8976.994336 9045.072580 9013.486797 9075.917307 9151.089490 9038.853197 8784.875608 8633.062098 8862.776471 9638.397079 10713.804208 11601.537851 12221.837701 12770.421410 13314.913075 13512.617437 13309.390444 13084.470774 13066.171368 13222.381502 13534.211979 13932.279711 14310.330395 14599.952616 14775.071562 14784.880470 14721.484306 14825.182976 15227.135298 15873.610730 16393.519047 16533.775162 16292.259855 15911.803683 15681.787388 15761.450035 16040.536407 16253.809770 16355.110183 16459.456677 16524.490834 16457.589152 16345.918312 16374.774310 16577.366035 16824.013173 16983.971961 17033.268050 16993.180580 16943.717725 16988.484033 17107.555541 17232.709523 17387.808353 17685.264306 18042.661277 18229.017471 18153.247917 17993.608215 17950.007375 17894.367061 17590.313734 17135.516201 16920.896733 17198.450084 17635.040809 17702.263459 17421.718485 17051.997683 16736.784903 16571.111928 16648.978400 16828.381308 16980.246254 17140.568921 17235.930815 17129.503271 16985.211569 17031.963521 17166.890946 17095.615706 16891.123383 16720.455099 16656.005508 16693.237555 16907.233568 17285.082985 17655.059839 17864.862536 17918.407871 17888.793123 17768.593301 17633.761610 17696.395038 17955.731774 18243.303449 18430.083519 18535.193301 18572.213969 18528.958501 18424.927845 18321.343887 18154.171098 17826.843748 17425.361074 17192.516895 17267.848002 17425.037229 17499.660753 17504.988995 17457.492232 17356.822905 17237.259965 17112.104868 16981.736971 16868.359076 16815.933214 16770.959976 16653.573172 16477.530114 16308.786144 16182.235822 16113.075477 16059.730887 15978.929518 15851.734525 15687.329945 15501.225021 15335.240475 15259.248411 15266.638750 15326.404641 15403.890670 15392.705098 15239.827926 14995.805230 14812.297090 14740.807463 14770.132682 14855.414865 14870.681816 14688.387226 14348.797820 13983.121757 13647.523187 13395.552156 13257.540727 13209.400989 13186.984650 13130.095228 13042.709115 12925.131113 12785.462727 12630.334083 12489.436162 12372.396973 12256.522459 12055.689049 11699.413994 11224.786286 10715.644880 10211.275754 9807.912285 9570.551120 7347.327622 7006.588206 6319.042408 5587.135743 5062.135266 4753.492346 4564.415367 4411.810921 4255.514714 4128.276231 4038.712522 3809.028438 3258.640184 2376.212221 1243.151898 -537.876025 -3933.866199 -8263.515959 -11654.929057 -13856.076917 -15401.180983 -16622.614243 -15125.267005 -10190.896961 -4803.937918 -2008.635850 -1213.734676 -865.953960 -471.487152 215.515932 1373.331570 2853.181042 4420.671235 5918.082345 7117.552973 7848.046917 8215.685870 8424.007887 8591.324932 8775.754903 8954.615160 9026.898656 9012.065132 9032.573615 9097.991379 9072.155854 8947.076353 8894.133758 9117.637753 9727.658870 10593.463472 11422.791091 12110.806753 12725.228120 13231.016262 13415.174118 13322.453846 13221.878791 13262.602122 13441.020818 13721.194958 14049.113551 14387.187392 14669.819703 14852.725955 14909.882380 14901.141647 14998.413754 15317.225764 15789.947216 16180.737761 16297.720719 16130.127602 15883.661474 15768.156973 15864.688742 16121.525294 16359.517235 16459.755680 16446.415166 16367.083940 16248.152788 16192.142595 16296.828584 16535.918666 16791.250244 16970.223752 17013.629594 16951.866493 16868.721020 16865.729149 16961.655914 17093.096894 17274.723625 17552.414180 17851.485709 18005.317403 17967.020903 17848.353107 17742.566390 17618.162966 17371.978386 17096.958841 17027.047666 17252.836892 17535.735798 17557.593428 17302.875810 16977.921557 16704.347509 16552.665236 16585.688502 16718.577078 16861.187014 16998.331077 17081.415567 17023.360708 16909.900307 16897.892492 16967.298222 16941.720357 16816.878384 16701.604505 16669.673042 16742.203458 16946.985364 17279.359524 17621.362967 17804.483696 17808.051578 17755.857538 17652.452197 17582.978635 17676.705227 17909.720971 18159.868942 18361.696008 18494.482511 18541.521665 18513.578869 18414.859427 18264.201211 18061.945124 17793.150243 17514.846037 17379.657001 17416.136181 17481.645441 17495.369696 17456.024233 17370.421477 17254.033634 17123.992983 16990.827476 16865.960577 16762.611682 16695.646024 16639.493376 16537.428669 16389.800556 16241.251496 16116.299276 16028.427149 15952.288761 15848.231105 15699.284839 15537.137546 15386.949147 15266.001107 15196.171889 15189.583771 15211.579993 15224.271655 15188.673654 15081.727622 14909.792643 14729.288504 14618.744169 14593.735389 14615.185452 14577.731817 14400.058987 14107.866006 13782.108558 13471.369459 13228.344492 13092.293472 13041.557539 13015.176820 12971.865331 12894.231982 12770.483288 12611.364533 12447.630415 12291.857107 12144.614556 11994.381164 11774.480277 11431.303833 10992.926953 10530.014324 10096.877012 9732.999898 9508.316681 9426.340168 10003.007247 10294.381391 10550.885509 10513.300560 10152.685596 9602.717224 9097.319420 8635.061965 8154.461824 7642.356024 7043.799664 6318.270949 5660.907880 5122.949383 4688.800914 4254.785890 3705.109404 3095.552512 2627.560612 2202.483039 2030.825782 1937.764591 1884.216341 1856.818046 1840.863899 1826.685924 1808.762040 1782.484617 1745.171881 1695.868618 1635.033772 1564.108141 1485.118052 1400.348553 1312.092305 1222.472972 1133.335742 1046.193409 962.214687 882.241815 806.826292 736.273938 670.692744 610.039082 554.159484 502.826484 455.767961 412.690078 373.294321 337.289433 304.399093 274.366259 246.954988 221.950492 199.158031 178.401146 159.519585 142.367203 126.809987 112.724322 99.995529 88.516688 78.187719 68.914695 60.609342 53.188674 46.574751 40.694488 35.479525 30.866105 26.794967 23.211222 20.064230 17.307447 14.898264 12.797825 10.970833 9.385347 8.012568 6.826624 5.804355 4.925094 4.170465 3.524176 2.971827 2.500728 2.099726 1.759045 1.470135 1.225538 1.018760 0.844157 0.696829 0.572526 0.467559 0.378708 0.303115 0.238078 0.180322 0.127028 0.100054 9570.551120 9706.141009 9863.347859 9944.079402 9847.600667 9534.055203 9083.007948 8611.506679 8146.755831 7658.376368 7131.511219 6550.204675 5926.971308 5333.068481 4825.276825 4392.057002 3961.808698 3479.003625 2989.885226 2566.980234 2239.670972 2047.335118 1942.248707 1886.363291 1858.089942 1841.140596 1826.979108 1809.175240 1783.009390 1745.735635 1696.407561 1635.504018 1564.483731 1485.387824 1400.512651 1312.158798 1222.454810 1133.248242 1046.052356 962.035021 882.036817 806.607179 736.049736 670.470366 609.823535 553.954141 502.633380 455.588086 412.523646 373.141006 337.148559 304.269790 274.247575 246.845970 221.850239 199.065723 178.316056 159.441084 142.294749 126.743116 112.662637 99.938685 88.464379 78.139671 68.870656 60.569073 53.151950 46.541351 40.664200 35.452139 30.841418 26.772779 23.191341 20.046469 17.291627 14.884214 12.785383 10.959846 9.375671 8.004070 6.819181 5.797852 4.919427 4.165540 3.519906 2.968134 2.497543 2.096986 1.756693 1.468122 1.223820 1.017299 0.842919 0.695786 0.571655 0.466849 0.378177 0.302871 0.238535 0.183246 0.136271 0.106041 0.093568 9426.340168 9468.949920 9551.180889 9625.772494 9626.384937 9488.905756 9194.373163 8788.758994 8337.253369 7870.716586 7378.060029 6847.132489 6283.402425 5704.734226 5148.689377 4653.150222 4209.786996 3780.705447 3339.902614 2912.939910 2540.087362 2251.839256 2061.198113 1950.536869 1891.599897 1860.060205 1841.645905 1826.907273 1808.793443 1782.488903 1745.173368 1695.869279 1635.034076 1564.108254 1485.118090 1400.348565 1312.092309 1222.472973 1133.335742 1046.193409 962.214688 882.241815 806.826292 736.273938 670.692744 610.039082 554.159484 502.826484 455.767961 412.690078 373.294321 337.289433 304.399093 274.366259 246.954988 221.950492 199.158031 178.401146 159.519585 142.367203 126.809987 112.724322 99.995529 88.516688 78.187719 68.914695 60.609342 53.188674 46.574751 40.694488 35.479525 30.866105 26.794967 23.211222 20.064230 17.307447 14.898264 12.797825 10.970833 9.385347 8.012568 6.826624 5.804355 4.925094 4.170465 3.524176 2.971827 2.500728 2.099726 1.759045 1.470135 1.225538 1.018760 0.844158 0.696833 0.572540 0.467605 0.378859 0.303612 0.239713 0.185860 0.142353 0.110799 0.094765 0.090059 0.100054 0.086786 0.067162 0.053137 0.042486 0.034039 0.027250 0.021777 0.017364 0.013813 0.010962 0.008677 0.006852 0.005397 0.004240 0.003322 0.002597 0.002024 0.001574 0.001220 0.000944 0.000728 0.000560 0.000429 0.000328 0.000250 0.000190 0.000144 0.000109 0.000082 0.000062 0.000046 0.000035 0.000026 0.000019 0.000014 0.000010 0.000008 0.000006 0.000004 0.000003 0.000002 0.000002 0.000001 0.000001 0.000001 0.000000 0.000000 0.000000 0.000000 0.000000 0.000000 0.000000 0.000000 0.000000 0.000000 0.000000 0.000000 0.000000 0.000000 0.000000 0.000000 0.000000 0.000000 0.000000 0.000000 0.000000 0.000000 -0.000000 0.000000 0.000000 0.000000 0.000000 0.000000 0.000000 0.000000 0.000000 0.000000 0.000000 0.000000 0.000000 0.000000 -0.000000 0.000000 0.000000 0.000000 0.000000 0.000000 0.000000 0.000000 0.000000 0.000000 0.000000 0.000000 0.000000 0.000000 -0.000000 -0.000000 -0.000000 -0.000000 -0.000000 -0.000000 -0.000000 -0.000000 -0.000000 -0.000000 -0.000000 -0.000000 -0.000000 -0.000000 -0.000000 -0.000000 -0.000000 -0.000000 -0.000000 -0.000000 -0.000000 -0.000001 -0.000001 -0.000001 -0.000002 -0.000002 -0.000003 -0.000004 -0.000005 -0.000007 -0.000009 -0.000012 -0.000015 -0.000020 -0.000027 -0.000036 -0.000047 -0.000061 -0.000080 -0.000105 -0.000137 -0.000178 -0.000230 -0.000298 -0.000385 -0.000495 -0.000637 -0.000816 -0.001044 -0.001332 -0.001695 -0.002154 -0.002729 -0.003451 -0.004353 -0.005480 -0.006881 -0.008621 -0.010777 -0.013441 -0.016725 -0.020763 -0.025718 -0.031782 -0.039186 -0.048203 -0.059161 -0.072442 -0.088500 -0.107871 -0.131179 -0.159156 -0.192656 -0.232670 -0.280348 -0.337018 -0.404209 -0.483678 -0.577435 -0.687775 -0.817308 -0.968992 -1.146171 -1.352611 -1.592540 -1.870687 -2.192324 -2.563309 -2.990124 -3.479920 -4.040550 -4.680612 -5.409479 -6.237328 -7.175170 -8.234871 -9.429198 -10.771929 -12.278197 -13.965656 -15.858376 -17.999705 -20.507901 -23.592728 -25.511576 0.093568 0.089877 0.079150 0.064827 0.052425 0.042220 0.033914 0.027176 0.021724 0.017324 0.013781 0.010936 0.008657 0.006835 0.005383 0.004229 0.003314 0.002590 0.002019 0.001569 0.001217 0.000941 0.000726 0.000558 0.000428 0.000327 0.000250 0.000190 0.000144 0.000109 0.000082 0.000062 0.000046 0.000034 0.000026 0.000019 0.000014 0.000010 0.000008 0.000006 0.000004 0.000003 0.000002 0.000002 0.000001 0.000001 0.000001 0.000000 0.000000 0.000000 0.000000 0.000000 0.000000 0.000000 0.000000 0.000000 0.000000 0.000000 0.000000 0.000000 0.000000 0.000000 0.000000 0.000000 0.000000 0.000000 0.000000 0.000000 0.000000 0.000000 -0.000000 0.000000 -0.000000 0.000000 0.000000 -0.000000 0.000000 0.000000 0.000000 -0.000000 -0.000000 0.000000 0.000000 -0.000000 -0.000000 0.000000 0.000000 0.000000 -0.000000 0.000000 0.000000 0.000000 0.000000 -0.000000 0.000000 0.000000 0.000000 -0.000000 -0.000000 -0.000000 -0.000000 -0.000000 -0.000000 -0.000000 -0.000000 -0.000000 -0.000000 -0.000000 -0.000000 -0.000000 -0.000000 -0.000000 -0.000000 -0.000000 -0.000000 -0.000000 -0.000000 -0.000000 -0.000001 -0.000001 -0.000001 -0.000002 -0.000002 -0.000003 -0.000004 -0.000005 -0.000007 -0.000009 -0.000012 -0.000015 -0.000020 -0.000027 -0.000036 -0.000047 -0.000061 -0.000080 -0.000105 -0.000136 -0.000177 -0.000230 -0.000297 -0.000384 -0.000494 -0.000635 -0.000814 -0.001041 -0.001328 -0.001691 -0.002148 -0.002723 -0.003443 -0.004343 -0.005467 -0.006866 -0.008602 -0.010754 -0.013413 -0.016690 -0.020722 -0.025668 -0.031721 -0.039113 -0.048116 -0.059055 -0.072316 -0.088350 -0.107692 -0.130967 -0.158905 -0.192360 -0.232322 -0.279939 -0.336540 -0.403651 -0.483028 -0.576681 -0.686903 -0.816301 -0.967833 -1.144840 -1.351088 -1.590801 -1.868708 -2.190078 -2.560768 -2.987257 -3.476694 -4.036932 -4.676566 -5.404968 -6.232311 -7.169598 -8.228674 -9.422237 -10.763835 -12.267851 -13.949467 -15.824472 -17.908075 -20.202562 -22.626496 -24.377380 -25.039190 0.090059 0.089213 0.084643 0.074925 0.063280 0.051976 0.042134 0.033932 0.027218 0.021767 0.017361 0.013812 0.010962 0.008677 0.006852 0.005397 0.004240 0.003322 0.002597 0.002024 0.001574 0.001220 0.000944 0.000728 0.000560 0.000429 0.000328 0.000250 0.000190 0.000144 0.000109 0.000082 0.000062 0.000046 0.000035 0.000026 0.000019 0.000014 0.000010 0.000008 0.000006 0.000004 0.000003 0.000002 0.000002 0.000001 0.000001 0.000001 0.000000 0.000000 0.000000 0.000000 0.000000 0.000000 0.000000 0.000000 0.000000 0.000000 0.000000 0.000000 0.000000 0.000000 0.000000 0.000000 0.000000 0.000000 0.000000 0.000000 0.000000 0.000000 -0.000000 0.000000 0.000000 0.000000 0.000000 0.000000 0.000000 0.000000 0.000000 0.000000 0.000000 -0.000000 0.000000 0.000000 -0.000000 0.000000 0.000000 0.000000 0.000000 0.000000 0.000000 0.000000 0.000000 0.000000 -0.000000 0.000000 0.000000 0.000000 -0.000000 -0.000000 -0.000000 -0.000000 -0.000000 -0.000000 -0.000000 -0.000000 -0.000000 -0.000000 -0.000000 -0.000000 -0.000000 -0.000000 -0.000000 -0.000000 -0.000000 -0.000000 -0.000000 -0.000000 -0.000000 -0.000001 -0.000001 -0.000001 -0.000002 -0.000002 -0.000003 -0.000004 -0.000005 -0.000007 -0.000009 -0.000012 -0.000015 -0.000020 -0.000027 -0.000036 -0.000047 -0.000061 -0.000080 -0.000105 -0.000137 -0.000178 -0.000230 -0.000298 -0.000385 -0.000495 -0.000637 -0.000816 -0.001044 -0.001332 -0.001695 -0.002154 -0.002729 -0.003451 -0.004353 -0.005480 -0.006881 -0.008621 -0.010777 -0.013441 -0.016725 -0.020763 -0.025718 -0.031782 -0.039186 -0.048203 -0.059161 -0.072442 -0.088500 -0.107871 -0.131179 -0.159156 -0.192656 -0.232670 -0.280348 -0.337018 -0.404209 -0.483678 -0.577435 -0.687775 -0.817308 -0.968992 -1.146171 -1.352611 -1.592540 -1.870687 -2.192324 -2.563309 -2.990124 -3.479920 -4.040549 -4.680611 -5.409475 -6.237316 -7.175131 -8.234742 -9.428778 -10.770558 -12.273721 -13.951041 -15.810646 -17.844199 -19.992945 -22.069158 -23.748794 -24.581481 -24.779405 -25.511576 -28.395706 -33.792798 -39.196113 -44.763076 -50.640904 -56.880035 -63.507310 -70.541121 -77.995866 -85.883039 -94.211329 -102.986421 -112.210708 -121.883009 -131.998284 -142.547397 -153.516900 -164.888881 -176.640856 -188.745727 -201.171814 -213.882948 -226.838636 -239.994276 -253.301395 -266.707880 -280.158144 -293.593175 -306.950419 -320.163486 -333.161748 -345.869999 -358.208529 -370.094153 -381.442840 -392.174593 -402.220908 -411.534335 -420.098368 -427.933867 -435.095792 -441.651794 -447.634138 -452.961354 -457.332217 -460.159270 -460.744413 -458.092315 -453.959719 -438.323192 -427.003336 -409.743028 -386.911791 -386.029521 -382.927088 -360.164533 -325.162105 -327.235499 -394.755101 -571.912532 -754.808385 -880.253243 -1005.947890 -1167.858092 -1555.692349 -1806.785529 -1499.985017 -1023.205371 -577.164696 -181.200952 -1.311502 86.401252 14.979457 -296.037481 -606.329466 -850.445599 -676.830427 -101.672171 680.420760 895.413984 975.381360 995.384375 924.626236 680.454946 300.017480 155.695206 251.262203 475.763182 782.470835 1400.390673 1650.874416 1360.170667 884.805071 594.619151 557.368204 768.880739 1095.819276 1726.517430 3176.624824 4623.739612 -25.039190 -26.339440 -29.471563 -34.143193 -39.279346 -44.776284 -50.632656 -56.864796 -63.489468 -70.522078 -77.976124 -85.862840 -94.190846 -102.965813 -112.190143 -121.862663 -131.978345 -142.528061 -153.498372 -164.871371 -176.624574 -188.730885 -201.158617 -213.871595 -226.829316 -239.987166 -253.296662 -266.705682 -280.158638 -293.596522 -306.956793 -320.173084 -333.174784 -345.886688 -358.229048 -370.118566 -381.470991 -392.205984 -402.254584 -411.568859 -420.131950 -427.964793 -435.123282 -441.677374 -447.663447 -453.006742 -457.418834 -460.313225 -460.955719 -458.573772 -453.730612 -444.804020 -427.813045 -410.726015 -396.190835 -381.293851 -364.292272 -347.177591 -347.582606 -392.628125 -482.896145 -597.682782 -729.655292 -873.461747 -1021.053383 -1199.842828 -1438.562538 -1619.188696 -1461.868280 -997.855260 -554.441588 -320.967534 -215.655748 -131.145563 -163.769353 -365.978416 -638.046451 -836.765525 -849.421338 -545.650509 -69.657728 251.666929 402.175279 543.502323 671.248656 622.600599 445.448595 462.204575 666.203552 920.287059 1296.286720 1769.391267 1936.182859 1760.435564 1394.576537 1137.091460 1150.501302 1402.396527 1794.239123 2537.334498 3945.378691 5443.015812 6501.927058 -24.779405 -25.262452 -26.926890 -30.153715 -34.421317 -39.384529 -44.820986 -50.658636 -56.885467 -63.508974 -70.541631 -77.996022 -85.883086 -94.211344 -102.986425 -112.210710 -121.883009 -131.998285 -142.547397 -153.516900 -164.888881 -176.640856 -188.745727 -201.171814 -213.882948 -226.838636 -239.994276 -253.301395 -266.707880 -280.158144 -293.593175 -306.950419 -320.163486 -333.161748 -345.869999 -358.208529 -370.094153 -381.442840 -392.174594 -402.220909 -411.534341 -420.098394 -427.933961 -435.096121 -441.652862 -447.637458 -452.972425 -457.371485 -460.254544 -460.905261 -458.729409 -453.563992 -446.263383 -435.089847 -418.357569 -398.852131 -381.146474 -366.669118 -361.692576 -383.083269 -441.749575 -526.979799 -627.443255 -742.295516 -868.842269 -1012.602947 -1190.030347 -1376.815658 -1473.724869 -1339.736573 -959.347222 -590.241832 -426.058166 -351.068791 -268.741263 -279.428508 -436.828444 -655.110601 -807.511006 -816.863830 -647.137018 -356.297788 -89.129462 103.491535 295.560411 461.494989 516.155135 497.552225 624.626893 911.732506 1244.629562 1604.651035 1934.800192 2093.445261 2003.296819 1743.342623 1548.463639 1590.980270 1865.882775 2372.139003 3221.218881 4482.417724 5880.944382 6912.832245 7347.327622 2221.307165 -261.463206 4996.248411 97.869108 41.277656 254.414794 803.243987 1.826714 275.715798 324.021319 1759.785306 -225.049476 108.011070 683.103190 414.341488 1022.144221 447.841595 1317.557469 1163.495836 2621.393855 -154.200600 771.322440 -115.803946 4203.037613 251.128145 1091.751861 -332.145789 167.113250 548.826657 863.876807 -60.989443 1078.921332 1069.331691 425.206315 383.760609 462.528190 503.841288 362.301958 998.286504 2083.965813 1976.788714 58.470863 -601.201740 193.634157 347.469073 84.617179 -1331.262609 115.867098 8.671416 -105.459134 198.716444 924.579107 1073.511501 282.322430 363.513781 1981.122517 937.629869 436.429548 1812.642202 483.840732 -206.703366 1463.190520 -17829.212163 -84.966853 625.104179 504.122517 -100.550246 472.524917 400.792396 444.459021 511.560427 -5930.606928 -37.501701 589.513354 421.756694 844.141635 2617.265716 1069.726593 1420.800555 2507.417508 2971.383817 3399.298805 -34111.540055 2429.453445 2041.633064 3683.923534 -23910.319323 57890.966024 743.432168 591.704204 1001.591610 2296.145964 2909.633817 1315.318632 904.600211 641.325682 522.156024 -7187.928721 1566.989759 2600.194015 2711.929496 1522.963901 -1688.174724 -103.012885 -5427.018507 -13526.081295 -545.919949 -5666.903029 999.161569 2569.919933 -3570.015588 3688.064561 315.658080 3306.038952 3052.069034 1464.366040 457.183843 257.655638 4413.086692 404.853614 2935.137639 382.980971 5044.048107 5989.478806 2084.011682 62809.471932 1707.353098 611.725816 58517.507565 -17299.463812 -3294.348903 3419.767331 5036.873860 3300.416369 -15082.829042 -15107.507702 5030.329512 1004.942723 803.216065 3000.363606 -20109.692850 2772.479264 -22727.419329 2221.532834 2053.968671 2203.280032 794.429336 2954.740489 2537.471601 -9364.509544 -78.564268 1503.985228 738.303731 -13845.634444 10286.070722 1089.365531 -4243.412956 -80.156630 632.130902 922.333597 1634.533057 2817.903689 -1190.412585 3213.517926 -24134.646756 -671.414889 4165.628056 -16634.710071 1403.494006 809.895862 -14897.500443 448.261649 3966.273956 1820.721095 4817.887293 -4502.550700 15521.036101 1419.642611 1586.983014 2411.053066 -34187.324007 4412.327950 4253.841309 6672.084025 181.707958 -24977.259727 -23468.934339 -5091.754832 -1657.597713 273.428092 -24657.048121 49872.203342 1125.896739 -9175.726596 2821.875035 1989.705561 22719.576435 1864.761520 3795.765822 3433.040486 -31219.439643 -496.296752 -18136.346027 4130.646853 4030.325414 2488.975814 -2820.925159 2231.058039 43959.139568 -9772.803247 2868.196485 413.872769 1153.033657 6783.727775 2514.598102 -21360.320467 1740.238224 4334.282474 14255.423329 1523.035275 5081.587517 -25050.707967 -24082.287577 5232.893846 926.256661 2843.926730 375.649861 4943.453356 4190.342672 5706.784307 7256.614161 -24800.578682 2899.616118 2754.053006 3555.745464 11504.764362 -15569.786874 15105.736709 2350.033437 -35431.892327 48930.715572 5969.812572 984.799581 3817.340367 -1851.418379 51190.004827 679.687175 3407.464174 1725.093700 3465.340707 1120.725980 4466.387053 3435.565542 1025.209062 7268.387307 2038.708011 58988.903843 6729.572753 7234.967170 8311.116511 -1558.632610 9762.862753 4942.566223 -171.149566 11913.513800 5067.392730 2944.814010 4613.837402 -742.885075 163.508555 4716.692865 -131.934840 1198.404161 7436.362565 27.478259 5945.110797 7962.948114 9104.956165 11397.289834 3077.375760 1112.493443 5876.467003 5568.705530 6140.245636 6311.316804 2426.166896 5513.268906 4046.890001 7560.160171 1643.866161 4208.938560 5619.089583 4120.700111 4929.373339 3417.160853 7075.679944 7134.360961 7881.681067 5579.676017 8779.285228 2012.980131 4820.272308 9157.524070 -24974.664675 2532.137801 5436.132338 4138.053584 3878.623254 3576.966227 5830.225905 5876.454933 6373.140353 3324.234461 4645.117121 5433.814298 5468.259897 8177.697593 10178.098309 1905.201493 7872.830468 4535.060338 5869.843412 7501.187125 5635.822781 3331.027400 -1780.318330 5319.663143 4029.561450 5173.478042 4852.138380 7832.662351 5826.670133 7444.651925 6209.915639 4706.934600 7910.015818 5256.038568 -34810.939653 -17170.320855 27515.315985 7426.524821 421.481666 4744.856589 4705.107963 4461.501767 3089.427746 7848.590644 6739.233924 6932.235939 5808.464087 5309.826381 7571.715441 2241.380418 8786.973715 7334.093155 7933.087833 8669.768380 7059.755557 6217.833218 -26115.087467 8939.294380 7888.576082 165.566662 7799.742752 8481.027748 8676.996660 7080.463696 10617.122669 6773.631091 7077.179240 7400.360316 10048.214970 6947.325658 9514.676422 7832.247624 5860.808878 6827.649906 8861.357135 6549.298020 5789.201270 7760.719720 6004.851159 6241.730484 8032.713433 7206.390508 6983.845481 7982.606279 6750.350136 5528.699954 8841.410378 11731.991835 11242.149602 8329.398481 6287.590354 9461.536631 9029.101903 8853.716695 1295.333909 38637.143249 8346.292736 6729.644743 7105.197688 7745.861838 6798.155487 6736.317819 7160.954689 9780.933643 8048.371214 6717.038092 7503.862729 10365.651209 7539.567063 9714.563231 6190.605775 9978.151888 8195.468335 8060.370129 8109.572953 9909.367538 1852.719695 8938.316571 6971.507384 8231.557506 5943.222169 6654.661233 6735.441807 8761.083530 7120.418626 9798.835919 7159.666106 8480.236892 9035.149547 7742.248581 10922.674288 8268.502898 8103.236480 9065.246406 7334.377666 5848.506170 12835.252456 9837.268664 6438.334621 6103.106662 6352.762647 6823.708086 6509.799006 6309.035050 9577.877694 6102.974997 6774.125735 10294.221319 8149.539193 9959.884847 11399.865610 11610.049182 10232.691431 11004.878533 8971.957638 12715.585576 7734.832691 10119.481886 7505.526361 7553.094091 6023.402681 7562.208423 5208.386975 8830.489605 10939.485953 11127.713612 7355.530881 7986.495620 8166.910706 11992.699681 9691.995613 11705.968044 9513.095258 2254.671698 12745.578984 6266.847134 8259.936022 7798.872956 11554.225717 7575.897893 8119.143426 10709.064354 7322.482704 11744.957032 7870.013217 9453.353839 10394.229659 10821.005392 9250.052426 12558.899176 9602.607216 11914.121778 10750.573759 9156.725358 9802.054894 2110.362212 8574.721787 7221.356795 11838.726797 11144.250853 9889.331461 10534.559585 10511.170720 8862.942428 11836.203171 8469.064618 11972.173420 12375.595907 11517.810827 12618.359040 12059.565866 10884.145954 8878.533464 12518.117674 7484.682381 7417.453961 6927.162027 13861.928943 11927.746154 6885.789558 9070.787911 6317.292466 11166.056285 10036.365043 9165.466010 12208.238867 13026.796576 12973.581090 11939.820311 11411.878462 12659.054385 7797.296692 8137.025011 14352.264855 9102.885769 2088.720888 3296.338594 7977.674765 5739.402302 9146.204875 7242.836255 6632.648981 6153.471774 10083.480869 11277.406228 12484.213673 12793.971145 11723.465299 10359.610619 9954.425418 12645.873685 13133.017202 11603.894403 7795.778186 12102.966094 8687.467172 8789.185806 5227.237990 7138.102566 3648.307987 9679.794556 10599.561847 10402.805525 8692.476795 8901.276469 7696.882016 14749.123364 9355.626877 11063.381682 13976.456811 12868.425794 12456.392222 13298.118635 13412.931846 13041.339739 14163.284048 8888.002039 58.204696 6169.786440 2921.361478 6638.905733 8472.867280 9494.783892 7155.320433 8680.124018 8398.443525 10521.057164 9277.516327 12399.167034 8712.777170 9506.463140 10695.133863 12995.444151 12060.523254 11071.098841 9790.158796 8287.972066 306.873382 941.948390 473.692839 5046.081148 1997.845786 7318.132753 8480.727090 9226.554958 7976.402033 9549.926427 9000.524241 8232.035626 11196.680190 10657.035671 12738.505282 13904.050416 10889.396151 11527.196782 6950.861604 10498.289283 812.424892 2168.431917 111.685005 487.602860 7940.165601 4017.054756 8193.178471 6438.247627 7949.371653 8005.501125 6977.512845 7566.840566 8895.409202 13690.381084 11080.329864 12602.128542 11208.244487 12209.236732 7465.078713 8741.258008 449.227493 311.697932 919.009784 568.840138 1803.595878 6191.417628 5166.735553 6908.425140 7508.010506 8463.919000 7125.746379 9156.042150 15437.337500 9842.026860 10900.610718 13808.595575 12883.971791 10917.624691 7659.224928 9821.046559 554.127346 456.658727 1683.304588 159.625200 2834.892622 6476.928336 4257.021780 6745.038667 7818.118184 6265.563787 8513.651571 9007.196174 7744.301336 8719.361313 11996.481745 11609.071107 11307.356860 11939.937260 8225.097955 8363.609046 422.277094 -19.994002 429.457653 389.007272 3158.759395 4299.459071 5484.680533 6355.794779 8481.325915 8210.382926 9744.294997 10552.189724 8496.920851 12978.161766 13789.674080 13904.480313 11866.792982 13489.168732 11560.811826 10742.841133 -176.408857 -593.629181 941.368452 2086.252648 3867.832873 1978.862022 2862.735213 4017.845453 4706.601445 5493.868679 9089.706094 9493.568434 11023.167539 9111.723869 9823.656241 13862.597238 12509.271577 13153.661999 11806.595879 8379.951113 2572.499904 1112.958514 90.687421 62.802095 3062.821123 3750.426451 3354.673499 4727.050904 8134.326229 5378.252472 8239.791186 8574.808068 9464.304960 10823.009490 10260.635998 13513.336544 13668.786953 13130.208616 9246.743030 10316.770711 -266.587979 697.991960 1467.607537 1517.011319 539.701637 3918.751314 1005.848234 4874.021627 5877.294687 5061.678705 8638.794280 9441.127829 10020.798110 10264.773449 14173.590454 125