<VTKFile type="PolyData">
<PolyData>
<Piece NumberOfPoints="6715" NumberOfVerts="6715" NumberOfLines="0" NumberOfStrips="0" NumberOfPolys="0">
<PointData>
<DataArray type="Float64" Name="Pressure" format="ascii">
 13426.493887 13585.004179 12899.526664 12169.505257 11531.329130 10440.956956 8800.427256 7929.049173 8089.553813 9120.408774 10673.582733 11611.206117 13581.224302 17304.225919 6107.534485 -12768.481215 -21774.753021 -19572.752317 -12734.263129 -2012.301450 7741.215736 16869.337007 22610.339507 17772.829516 11270.111708 9774.549406 9206.162343 8422.131372 8731.183218 9664.857735 10887.337015 11445.952080 12036.282006 13770.171648 16333.143450 17395.575583 16053.777485 15489.459580 16937.725867 18823.980495 19293.323056 18218.906388 17548.795909 18088.194786 19349.759515 20042.567639 19725.799048 18724.170690 17859.229877 17750.317054 18171.134205 18214.919493 17929.168439 17854.979027 18365.576322 19371.593927 19596.794231 19446.838798 18728.187538 18604.541771 19603.507426 20203.473036 19690.444665 19615.231304 20090.455559 20764.989878 20185.144213 19209.362405 20046.329160 21382.693911 22369.943848 22438.526959 21074.467329 19630.918849 19751.561856 20952.144719 21583.631012 21862.491364 22116.872334 22521.399650 22944.885058 23362.194940 23688.631415 23985.298396 24287.950024 24399.279713 24391.903721 23644.290618 23129.997469 22734.951536 22875.579177 23452.202762 24380.436180 25131.780338 25469.587232 25316.360544 25923.238972 26448.212246 26023.569180 25113.083987 24694.487854 24664.836335 24463.119336 24792.928251 24992.184052 24349.659608 22705.013197 22751.849205 23863.875954 24605.857945 24415.720119 23631.812634 23405.709570 23559.369162 23628.803002 24036.710223 24143.144302 23132.270328 22501.887418 22112.299891 22185.493497 22002.812356 22163.867823 22748.178327 22523.942888 21798.766277 21149.667178 20981.631516 20565.944323 20349.601252 20447.310290 20516.662279 20354.200622 20234.907380 20313.328289 20338.322820 19982.360724 19772.870575 19807.001389 19553.130791 19134.223544 18440.523599 17896.951282 17723.398565 17641.081289 17545.195289 17587.719109 17592.726075 17640.192208 17490.282987 17183.163960 16735.971414 16436.534524 16559.888512 16656.218561 16588.974483 16584.668551 16695.347509 16812.608129 16906.564023 16967.957773 16984.692526 16835.402507 16616.760641 16483.813864 16512.628958 16581.491072 16463.399747 16174.660806 16279.579353 16596.720008 17110.431697 17570.605179 17591.622148 17520.059600 17599.330753 17730.213884 17700.611599 17648.701834 17836.665391 18183.286870 18510.043455 18818.084616 19102.768492 19456.689997 19246.781005 19109.929825 19322.520253 19558.888733 19851.435639 20099.469880 20044.091743 19873.354778 19659.176253 19649.882387 19346.210833 18885.505100 18726.474041 18764.046957 18649.565451 18499.680650 12184.577053 12684.170511 12788.937661 12261.130327 11660.547259 11093.150437 10155.568137 8918.735488 7917.183827 7514.641727 7643.903619 8228.361445 9024.608788 11204.527182 16443.544266 21357.377084 20902.983330 17215.555818 15949.974752 19085.995522 19693.589532 19954.383732 20340.139874 17494.745941 12747.391500 9702.743247 8578.462569 8179.649434 8788.144767 9987.882705 11146.017872 12157.517865 12852.575165 13563.247899 14631.092079 15868.175319 16902.040868 16772.860356 16550.882462 16972.973362 17736.132801 18275.893601 18152.972347 17738.262116 17801.067355 18475.101719 19042.068989 18974.782892 18477.661584 18076.982036 17940.503030 18029.028545 18009.046866 17859.716919 17996.344284 18286.661226 18543.912666 18634.750773 18662.813591 18764.598810 19052.788192 19315.686818 19514.564194 19532.524317 19605.094970 19936.383300 20284.242240 20081.529939 19595.020609 19899.963174 20777.864655 21365.645957 21419.151356 20852.828989 20057.619041 19842.440689 20344.483752 20922.858186 21223.215032 21450.697900 21820.273686 22305.571977 22765.452725 23130.156411 23504.706311 23816.252274 23983.816258 23799.902920 23271.259329 22962.120716 23058.311953 23335.380763 23613.829305 24108.460286 24662.120824 24850.586096 24790.330049 24911.950501 25068.072876 25099.409225 25064.759949 24903.782562 24577.258632 24201.416951 24024.902250 23793.767426 23386.515604 23136.311359 23478.894813 23938.418088 24119.626276 24005.683440 23805.519077 23636.071375 23489.998219 23411.897873 23302.500336 23138.370211 22674.392532 22238.369811 22182.708190 22168.780719 21949.270280 22006.582022 22338.239783 22198.301788 21554.595435 21031.311523 20769.792239 20490.979213 20248.477005 20255.114832 20306.586556 20103.104236 19946.593114 19978.299004 20012.511737 19946.963171 19761.206851 19588.911340 19386.598244 18994.409690 18500.205546 18126.071917 17873.215630 17698.072032 17555.637520 17446.446827 17442.503544 17458.815447 17374.932994 17171.226544 16931.265981 16757.379881 16732.866098 16759.471686 16773.020030 16816.556910 16874.968193 16896.390454 16880.051741 16876.170702 16891.751109 16849.850522 16725.451418 16651.890426 16671.152689 16651.750101 16529.146717 16321.455995 16351.435903 16769.154758 17226.774573 17365.062045 17341.581938 17466.688720 17655.199408 17796.862843 17855.948256 17876.808329 18049.264165 18393.979825 18636.123362 18776.311845 18971.313090 19187.467667 19270.464518 19303.273951 19382.044716 19588.037089 19879.642748 20109.302711 20104.569600 19913.854204 19754.604556 19653.804184 19404.369285 19032.403728 18784.000980 18700.693002 18581.433937 18423.556207 18310.124145 11808.475237 11911.211018 12081.562044 12066.994297 11769.688070 11300.536895 10722.940866 9985.756950 9129.191157 8273.023238 7621.324916 7265.567102 7236.000367 7761.042082 9589.270931 14023.814139 20848.283991 27345.277077 32784.068964 36054.503147 34732.164487 30027.304511 24947.015965 19688.071082 14327.382902 10335.868855 8375.323863 7852.323464 8168.354659 9025.389387 10066.810795 11024.125466 11920.424290 12845.699266 13804.519229 14766.307482 15701.617024 16452.837912 16803.895494 16999.898818 17250.294036 17556.174221 17799.702436 17862.468489 17815.949577 17894.885660 18164.643058 18383.127452 18353.175017 18171.302493 18004.667075 17915.926177 17900.780042 17894.028626 17918.840170 18062.626572 18240.337660 18357.847602 18481.935708 18620.559060 18826.115161 19047.126370 19190.794453 19297.203640 19429.446083 19630.666575 19910.654480 20160.215560 20228.053561 20159.577851 20266.664595 20594.876442 20867.023804 20878.105966 20631.976859 20314.728284 20210.070634 20416.783718 20797.516149 21136.205766 21424.492248 21738.973830 22107.333196 22485.962699 22827.665909 23139.965383 23429.885794 23622.039724 23606.022055 23449.782982 23343.224376 23424.867229 23559.528710 23707.811620 23971.246560 24318.281358 24539.280113 24639.986459 24690.287575 24722.533810 24735.193330 24751.720725 24671.430936 24472.983738 24276.089471 24097.733142 23886.808098 23684.914590 23654.572229 23807.761505 23982.645511 24032.358096 23974.167508 23877.439866 23730.405270 23584.775085 23464.754819 23306.588294 23078.540188 22761.983615 22439.453237 22279.723102 22128.332157 21938.441749 21886.624163 21923.762811 21789.931885 21434.436559 21072.706320 20743.663054 20454.626679 20272.764858 20230.100378 20196.103460 20096.624528 20015.464462 19972.442192 19938.883029 19860.700110 19681.541885 19459.995572 19220.931186 18894.825520 18537.436572 18245.482455 18008.234310 17835.370774 17693.357552 17564.109116 17491.848233 17428.630142 17320.436916 17171.619663 17016.474853 16896.891222 16840.331785 16833.714309 16857.928074 16901.227591 16931.062782 16927.678355 16900.247138 16876.762625 16867.761839 16834.139754 16759.147297 16701.165806 16675.837783 16627.287697 16547.617556 16480.538675 16526.788040 16768.378030 17060.880889 17253.088477 17393.214208 17565.979629 17734.144261 17856.567460 17958.931191 18062.863805 18242.101929 18493.094210 18705.691063 18860.745659 19038.893079 19221.254139 19357.823639 19437.773342 19532.892450 19713.784436 19927.025054 20070.413931 20084.000509 19973.976562 19834.511306 19673.679001 19444.976034 19152.377215 18903.672973 18730.577732 18566.954165 18399.207279 18280.736815 18233.474566 18499.680650 18637.545662 18604.985211 18003.739974 17137.503357 16526.836149 16152.034409 15668.154261 14846.685207 13742.420648 12776.494870 11889.842988 10881.451116 9681.121724 8662.899374 7816.333574 7232.422271 6695.817364 6223.468902 5747.521182 5268.914127 4569.714369 3983.715726 3513.139622 3117.063216 2781.700722 2499.658549 2263.457989 2065.269842 1897.714468 1754.369129 1629.925101 1520.123567 1421.613269 1331.800374 1248.714731 1170.894966 1097.289877 1027.173702 960.073451 895.706892 833.930136 774.693997 718.008516 663.914995 612.464829 563.704332 517.664660 474.355924 433.764601 395.853409 360.562931 327.814340 297.512745 269.550754 243.811974 220.174252 198.512537 178.701306 160.616541 144.137268 129.146713 115.533107 103.190205 92.017578 81.920718 72.811014 64.605624 57.227290 50.604100 44.669245 39.360747 34.621204 30.397528 26.640704 23.305547 20.350478 17.737309 15.431034 13.399634 11.613884 10.047173 8.675321 7.476419 6.430654 5.520157 4.728851 4.042299 3.447574 2.933119 2.488623 2.104904 1.773791 1.488022 1.241131 1.027322 0.841273 0.677690 0.529428 0.390142 0.318784 18310.124145 18370.290529 18436.623718 18368.167165 17973.389526 17337.772798 16738.663583 16196.462191 15576.942869 14772.943282 13782.590483 12775.903420 11800.811257 10782.064544 9719.629694 8750.011570 7920.622355 7233.421179 6618.436535 6066.045833 5557.572970 5039.802393 4483.150847 3961.455917 3505.801877 3113.235392 2778.959446 2497.493201 2261.723684 2063.894882 1896.636010 1753.530496 1629.277043 1519.624956 1421.230181 1331.504929 1248.484168 1170.710912 1097.137741 1027.042146 959.953920 895.593197 833.818055 774.580914 717.893080 663.796810 612.344186 563.581973 517.541590 474.233259 433.643456 395.734823 360.447812 327.703440 297.406650 269.449888 243.716610 220.084533 198.428491 178.622871 160.543583 144.069601 129.084114 115.475326 103.136981 91.968644 81.875808 72.769867 64.567988 57.192922 50.572771 44.640734 39.334847 34.597720 30.376275 26.621508 23.288244 20.334914 17.723338 15.418522 13.388453 11.603915 10.038304 8.667451 7.469451 6.424499 5.514735 4.724085 4.038123 3.443924 2.929938 2.485861 2.102514 1.771735 1.486273 1.239685 1.026250 0.840888 0.679110 0.537369 0.415017 0.335499 0.302591 18233.474566 18256.264323 18287.282021 18280.959979 18164.368754 17854.485689 17378.788237 16827.009683 16214.019714 15505.925863 14679.201558 13744.565940 12753.005671 11743.238575 10727.633042 9731.179985 8800.321556 7969.766749 7241.158151 6596.693224 6018.544464 5483.972341 4962.461132 4442.876965 3949.831544 3504.409377 3114.578742 2780.913046 2499.394812 2263.364973 2065.236948 1897.702686 1754.365038 1629.923750 1520.123144 1421.613146 1331.800341 1248.714722 1170.894963 1097.289876 1027.173702 960.073450 895.706892 833.930136 774.693997 718.008516 663.914995 612.464829 563.704332 517.664660 474.355924 433.764601 395.853409 360.562931 327.814340 297.512745 269.550754 243.811974 220.174252 198.512537 178.701306 160.616541 144.137268 129.146713 115.533107 103.190205 92.017578 81.920718 72.811014 64.605624 57.227290 50.604100 44.669245 39.360747 34.621204 30.397528 26.640704 23.305547 20.350478 17.737309 15.431034 13.399634 11.613884 10.047173 8.675321 7.476419 6.430654 5.520157 4.728851 4.042299 3.447574 2.933120 2.488625 2.104907 1.773803 1.488060 1.241254 1.027729 0.842614 0.682087 0.544256 0.431250 0.348456 0.306191 0.293795 0.318784 0.281360 0.224918 0.183284 0.150716 0.124150 0.102208 0.084024 0.068954 0.056482 0.046176 0.037678 0.030683 0.024938 0.020228 0.016374 0.013228 0.010665 0.008581 0.006890 0.005521 0.004414 0.003522 0.002804 0.002228 0.001767 0.001398 0.001103 0.000869 0.000683 0.000536 0.000419 0.000327 0.000255 0.000198 0.000154 0.000119 0.000092 0.000071 0.000054 0.000042 0.000032 0.000024 0.000018 0.000014 0.000011 0.000008 0.000006 0.000005 0.000003 0.000003 0.000002 0.000001 0.000001 0.000001 0.000001 0.000000 0.000000 0.000000 0.000000 0.000000 0.000000 0.000000 0.000000 0.000000 0.000000 0.000000 0.000000 0.000000 0.000000 0.000000 0.000000 0.000000 0.000000 0.000000 0.000000 0.000000 0.000000 0.000000 0.000000 0.000000 0.000000 -0.000000 0.000000 0.000000 0.000000 -0.000000 -0.000000 -0.000000 -0.000000 -0.000000 -0.000000 -0.000000 -0.000000 -0.000000 -0.000000 -0.000000 -0.000000 -0.000000 -0.000000 -0.000000 -0.000000 -0.000000 -0.000000 -0.000000 -0.000000 -0.000000 -0.000000 -0.000001 -0.000001 -0.000001 -0.000002 -0.000002 -0.000003 -0.000004 -0.000005 -0.000006 -0.000008 -0.000010 -0.000013 -0.000017 -0.000023 -0.000029 -0.000038 -0.000049 -0.000063 -0.000081 -0.000104 -0.000133 -0.000170 -0.000216 -0.000275 -0.000349 -0.000442 -0.000559 -0.000706 -0.000889 -0.001117 -0.001401 -0.001754 -0.002191 -0.002732 -0.003399 -0.004221 -0.005231 -0.006470 -0.007986 -0.009838 -0.012095 -0.014841 -0.018172 -0.022207 -0.027084 -0.032965 -0.040043 -0.048542 -0.058728 -0.070908 -0.085443 -0.102749 -0.123313 -0.147695 -0.176541 -0.210597 -0.250717 -0.297879 -0.353200 -0.417952 -0.493577 -0.581711 -0.684200 -0.803123 -0.940814 -1.099888 -1.283263 -1.494188 -1.736268 -2.013494 -2.330266 -2.691425 -3.102276 -3.568615 -4.096754 -4.693546 -5.366398 -6.123297 -6.972816 -7.924126 -8.987001 -10.171814 -11.489533 -12.951715 -14.570522 -16.358811 -18.330515 -20.501957 -22.896365 -25.558749 -28.620783 -32.312478 -34.578177 0.302591 0.291599 0.260435 0.218467 0.181319 0.149981 0.123802 0.101995 0.083870 0.068832 0.056382 0.046094 0.037610 0.030627 0.024891 0.020189 0.016342 0.013202 0.010643 0.008563 0.006875 0.005509 0.004405 0.003514 0.002798 0.002223 0.001762 0.001394 0.001101 0.000867 0.000681 0.000534 0.000418 0.000326 0.000254 0.000198 0.000153 0.000118 0.000091 0.000070 0.000054 0.000041 0.000032 0.000024 0.000018 0.000014 0.000011 0.000008 0.000006 0.000005 0.000003 0.000003 0.000002 0.000001 0.000001 0.000001 0.000001 0.000000 0.000000 0.000000 0.000000 0.000000 0.000000 0.000000 0.000000 0.000000 0.000000 0.000000 0.000000 0.000000 0.000000 0.000000 0.000000 0.000000 0.000000 0.000000 0.000000 0.000000 0.000000 0.000000 -0.000000 0.000000 0.000000 -0.000000 -0.000000 0.000000 0.000000 -0.000000 -0.000000 -0.000000 -0.000000 -0.000000 -0.000000 -0.000000 -0.000000 -0.000000 -0.000000 -0.000000 -0.000000 -0.000000 -0.000000 -0.000000 -0.000000 -0.000000 -0.000000 -0.000000 -0.000000 -0.000000 -0.000000 -0.000001 -0.000001 -0.000001 -0.000002 -0.000002 -0.000003 -0.000003 -0.000005 -0.000006 -0.000008 -0.000010 -0.000013 -0.000017 -0.000023 -0.000029 -0.000038 -0.000049 -0.000063 -0.000081 -0.000104 -0.000132 -0.000169 -0.000216 -0.000274 -0.000348 -0.000441 -0.000558 -0.000704 -0.000887 -0.001114 -0.001398 -0.001750 -0.002186 -0.002726 -0.003392 -0.004212 -0.005221 -0.006457 -0.007971 -0.009820 -0.012073 -0.014814 -0.018140 -0.022169 -0.027038 -0.032911 -0.039978 -0.048466 -0.058638 -0.070801 -0.085317 -0.102601 -0.123140 -0.147492 -0.176305 -0.210322 -0.250397 -0.297509 -0.352772 -0.417457 -0.493008 -0.581058 -0.683452 -0.802269 -0.939841 -1.098782 -1.282009 -1.492770 -1.734668 -2.011694 -2.328245 -2.689162 -3.099748 -3.565799 -4.093627 -4.690080 -5.362568 -6.119075 -6.968175 -7.919039 -8.981439 -10.165746 -11.482923 -12.944501 -14.562562 -16.349699 -18.318972 -20.483832 -22.857882 -25.453476 -28.267255 -31.198262 -33.302324 -34.107175 0.293795 0.291069 0.277399 0.248747 0.214164 0.180058 0.149735 0.123853 0.102118 0.083996 0.068946 0.056479 0.046176 0.037678 0.030683 0.024938 0.020228 0.016374 0.013228 0.010665 0.008581 0.006890 0.005521 0.004414 0.003522 0.002804 0.002228 0.001767 0.001398 0.001103 0.000869 0.000683 0.000536 0.000419 0.000327 0.000255 0.000198 0.000154 0.000119 0.000092 0.000071 0.000054 0.000042 0.000032 0.000024 0.000018 0.000014 0.000011 0.000008 0.000006 0.000005 0.000003 0.000003 0.000002 0.000001 0.000001 0.000001 0.000001 0.000000 0.000000 0.000000 0.000000 0.000000 0.000000 0.000000 0.000000 0.000000 0.000000 0.000000 0.000000 0.000000 0.000000 0.000000 0.000000 0.000000 0.000000 0.000000 0.000000 0.000000 0.000000 0.000000 0.000000 0.000000 0.000000 -0.000000 -0.000000 0.000000 -0.000000 -0.000000 -0.000000 -0.000000 -0.000000 -0.000000 -0.000000 -0.000000 -0.000000 -0.000000 -0.000000 -0.000000 -0.000000 -0.000000 -0.000000 -0.000000 -0.000000 -0.000000 -0.000000 -0.000000 -0.000000 -0.000000 -0.000000 -0.000001 -0.000001 -0.000001 -0.000002 -0.000002 -0.000003 -0.000004 -0.000005 -0.000006 -0.000008 -0.000010 -0.000013 -0.000017 -0.000023 -0.000029 -0.000038 -0.000049 -0.000063 -0.000081 -0.000104 -0.000133 -0.000170 -0.000216 -0.000275 -0.000349 -0.000442 -0.000559 -0.000706 -0.000889 -0.001117 -0.001401 -0.001754 -0.002191 -0.002732 -0.003399 -0.004221 -0.005231 -0.006470 -0.007986 -0.009838 -0.012095 -0.014841 -0.018172 -0.022207 -0.027084 -0.032965 -0.040043 -0.048542 -0.058728 -0.070908 -0.085443 -0.102749 -0.123313 -0.147695 -0.176541 -0.210597 -0.250717 -0.297879 -0.353200 -0.417952 -0.493577 -0.581711 -0.684200 -0.803123 -0.940814 -1.099888 -1.283263 -1.494188 -1.736268 -2.013494 -2.330266 -2.691425 -3.102276 -3.568615 -4.096754 -4.693546 -5.366398 -6.123297 -6.972815 -7.924125 -8.986997 -10.171800 -11.489487 -12.951565 -14.570032 -16.357212 -18.325299 -20.484943 -22.840846 -25.378048 -28.022623 -30.551142 -32.585420 -33.600081 -33.847903 -34.578177 -37.804410 -43.793510 -49.725852 -55.774520 -62.094267 -68.730785 -75.703117 -83.020939 -90.689758 -98.712318 -107.088883 -115.817181 -124.892272 -134.306383 -144.048771 -154.105597 -164.459819 -175.091130 -185.975904 -197.087185 -208.394706 -219.864932 -231.461142 -243.143548 -254.869450 -266.593448 -278.267721 -289.842409 -301.266118 -312.486620 -323.451755 -334.110593 -344.414787 -354.319997 -363.787064 -372.782420 -381.277061 -389.243383 -396.649290 -403.449146 -409.572202 -414.913463 -419.345049 -422.778009 -425.320940 -427.493362 -430.396487 -435.206984 -440.615295 -442.705281 -476.606720 -511.851648 -531.659243 -581.555456 -634.824833 -574.246866 -383.440926 -365.873933 -525.276240 -734.955293 -789.910003 -861.990534 -1121.610788 -1229.295648 -1366.551899 -1478.283437 -1538.622199 -961.952247 -727.420558 -1509.681032 -3080.510224 -2903.690366 -1661.590765 -361.065607 191.228906 -471.385287 -798.159226 -1115.719241 -817.219857 102.898667 -364.190590 43.446937 364.990492 420.394271 40.316573 -56.550431 850.517235 2129.643030 3367.138861 4417.272266 5070.484081 6264.424993 7427.233174 8476.456106 9505.198350 10424.016607 11166.440221 12336.404110 13354.744693 13426.493887 -34.107175 -35.548519 -39.027467 -44.192045 -49.823276 -55.793195 -62.089159 -68.718272 -75.688164 -83.005118 -90.673618 -98.696102 -107.072745 -115.801257 -124.876693 -134.291287 -144.034300 -154.091896 -164.447040 -175.079424 -185.965423 -197.078082 -208.387130 -219.859029 -231.457055 -243.141410 -254.869386 -266.595571 -278.272126 -289.849168 -301.275274 -312.498172 -323.465652 -334.126717 -344.432955 -354.339965 -363.808564 -372.805222 -381.301075 -389.268791 -396.676696 -403.479737 -409.607750 -414.955656 -419.392582 -422.823230 -425.339643 -427.453344 -430.269966 -435.241132 -442.670860 -450.025551 -464.017782 -494.373858 -521.969342 -527.146493 -505.575858 -419.475099 -335.925472 -431.406407 -617.827046 -740.117126 -812.082763 -922.676991 -1112.404617 -1260.871807 -1282.334555 -1294.422176 -1433.887747 -1456.116476 -1553.596348 -1957.647129 -2318.585359 -2232.757771 -1203.011696 -196.942508 -252.977946 -639.577907 -775.887627 -834.472092 -903.386768 -513.404903 0.580236 72.673651 125.169262 126.122799 -90.755971 5.123096 590.182493 1557.583429 2768.334229 4174.079165 5029.405934 5756.997904 6655.624640 7671.919727 8963.626846 10156.144638 11129.577371 11946.308561 12607.310666 12658.658441 12184.577053 -33.847903 -34.380247 -36.224021 -39.798415 -44.504452 -49.939252 -55.840158 -62.114382 -68.736952 -75.705008 -83.021518 -90.689935 -98.712373 -107.088899 -115.817186 -124.892273 -134.306383 -144.048772 -154.105597 -164.459819 -175.091130 -185.975904 -197.087185 -208.394706 -219.864932 -231.461142 -243.143548 -254.869450 -266.593448 -278.267721 -289.842409 -301.266118 -312.486620 -323.451755 -334.110593 -344.414787 -354.319997 -363.787064 -372.782422 -381.277068 -389.243412 -396.649383 -403.449385 -409.572736 -414.914443 -419.345784 -422.778083 -425.311687 -427.467181 -430.347979 -435.487018 -444.004792 -455.724742 -471.394325 -492.315398 -508.491350 -504.949789 -476.499834 -430.334326 -415.969532 -492.779501 -615.897371 -721.849339 -821.971405 -938.935825 -1068.248180 -1163.301377 -1183.782398 -1198.867331 -1269.362556 -1376.002660 -1516.592948 -1689.266487 -1774.276492 -1633.938880 -1180.786334 -763.377828 -671.021799 -709.520351 -712.391227 -681.185901 -624.391087 -421.353511 -173.670429 -179.847757 -242.718821 -276.595074 -271.853040 -36.003998 523.111612 1330.707591 2283.018185 3328.000329 4290.768423 5289.638074 6436.555874 7602.497901 8811.262950 9923.682665 10786.155936 11443.316087 11924.189270 12060.829809 11912.073982 11808.475237 4214.355506 1328.996899 5070.253255 3445.564033 1738.094831 35.756555 4386.315864 3738.453069 4239.300138 2535.700326 5102.542743 2665.485560 6677.827733 7500.473086 9456.238617 6497.662543 8698.695948 11910.164286 11658.926895 13609.355112 4716.146404 117.695572 2358.301157 5570.442677 4707.433253 6201.396097 2684.211284 6637.426759 5849.167536 6749.658422 6015.479292 6597.722176 6612.424090 5381.820071 7161.697321 10900.308832 7641.676153 8786.252375 11400.555416 12103.513444 6504.736988 3451.229930 2136.379592 4248.660360 3844.898597 7172.447226 13172.768296 5656.646818 7542.749483 6170.403527 5765.234365 4923.747096 7433.816099 9427.925951 7820.845362 12505.737320 11185.261279 10570.163268 12680.308806 10568.983153 8039.847926 4417.317262 -3618.623574 5638.403321 8741.807665 10409.785160 6400.801577 4139.697468 5467.235345 9701.667605 11010.501896 11592.438615 5780.992138 7762.089605 8684.265894 11001.734409 6447.152690 13073.432465 11884.472217 11524.436654 13124.952775 9705.759996 -6001.722147 7594.182230 7254.429532 6424.504513 -35194.630631 -11548.405524 6074.255120 3715.604669 8961.441752 6935.634676 7944.963214 4690.717158 6085.136610 10743.196219 7757.150139 14649.874521 11643.075635 10251.421799 8464.956660 11486.758069 13415.958727 6420.151022 10480.564630 4297.722217 6863.838657 2727.294680 6724.648253 6719.038048 11245.557488 9328.679235 10140.556358 10134.374349 9341.111614 11425.234140 7611.151877 7677.077478 8136.853909 8232.710955 7118.488882 7261.846093 10328.953249 6612.858375 9852.475704 -25924.461170 5939.136101 6406.220909 -17593.705815 -28224.994267 9645.416516 7697.036909 4066.415937 8606.521289 -18387.846541 -21000.568801 10372.459711 9985.680462 7482.746772 9085.361031 -27080.223398 8701.526714 -30591.197500 9116.676983 9085.442652 4649.247764 -7388.754524 9084.046360 7216.087380 -13475.899314 6522.593019 9348.182979 7047.136670 9294.262448 14992.468887 4145.786526 13727.664099 6711.774719 13491.185353 10377.652725 8162.887692 5934.434459 6323.303057 9895.896702 -33779.416054 11255.932548 10434.272609 -26731.119826 6399.482263 13305.510376 1033.919063 7305.157002 11939.208302 14484.851409 10090.796095 2306.183262 16151.296424 6227.718050 8796.458834 10532.441962 -4542.624536 11536.829144 9332.302966 11334.123483 7138.178109 -28090.004095 -32412.730036 13880.239308 6049.443930 7428.561832 -35549.850505 -8512.609675 7281.331212 -22297.936040 9197.270593 10299.490989 1357.901079 11007.768569 11190.825077 10930.273826 -7910.814865 8202.623982 5250.891518 10345.237298 9693.257385 9161.605056 2484.772496 8489.377725 -22569.624002 8687.314509 8817.269730 8336.132952 10212.147172 16003.376340 9890.678539 -30726.146324 10574.437068 5925.802429 12789.637599 5793.427561 11803.896780 -33879.376649 -35667.530755 14471.718996 9925.318502 9353.352674 8584.314845 7352.255934 11532.629369 13252.516603 15824.602835 -34843.400272 9934.193591 9327.518588 10043.947995 6520.437412 4020.358084 18963.150327 8618.549965 -4796.941214 -29994.252392 14738.155679 7783.261063 6051.276726 14322.526694 -16202.561843 8481.088989 11528.415274 6304.901543 11224.128667 7489.676632 10711.176460 10417.046879 8177.135579 12080.916313 8425.862225 -12853.690302 16022.441138 17629.347795 11758.886467 6197.831034 8771.096508 11985.079419 6382.608105 9421.503084 12717.985808 10559.488609 12128.282270 6061.490116 8689.797789 15745.713083 8116.837600 9471.949813 16144.913864 6808.966599 6003.772671 14852.693140 18945.049314 -3702.894094 12655.366944 8108.764393 12600.585862 10347.190276 13981.777158 13179.495310 8797.130607 15245.472134 11378.645515 13389.854996 8231.043274 11444.106343 12586.846354 10396.690550 14517.584607 9668.488494 15617.539566 16214.391488 16844.001575 15064.185208 17384.259185 8002.310334 14527.646387 8280.443726 -31215.620520 9203.775627 11522.530996 13475.081804 10846.336613 10939.964109 12201.905385 13041.419717 14791.471410 -25916.021637 10888.789271 12633.028265 13051.893128 17090.970306 8830.358119 8205.364942 18469.572304 9684.821372 15141.031939 17452.684480 12819.643398 10802.751207 -7374.408118 11806.666725 12608.925468 13962.005920 12404.493371 18302.792997 14264.553186 15274.399294 15585.608757 13607.142004 18790.906302 8574.872318 4446.578845 -26383.799235 -24482.558473 13293.688172 8674.479998 8535.966152 9212.658778 9674.352774 9917.109593 16731.091780 16395.650233 17250.013748 12022.550650 10809.300098 16136.513219 9477.189683 17092.393261 14919.351673 17805.036848 9883.742072 17537.326035 15258.286928 -21605.455740 16582.007756 16611.530050 7897.476289 16502.940131 17666.812996 18406.961716 17792.342600 17814.658062 14788.582590 11650.351027 12342.852815 16857.903216 14576.265947 18208.950452 15156.177071 10932.155416 16663.416235 14921.620509 16160.312312 13468.363884 14835.958561 12025.524146 13818.334383 16194.343774 14612.369007 11994.450093 15146.568139 11163.658980 10605.559804 14167.357310 19414.915638 15963.858341 15069.813267 14994.507784 17088.814667 16194.086562 14107.816488 8324.272023 -31818.753981 18152.787288 13227.536530 11897.711220 15571.265740 13885.475533 10868.532594 15081.724510 16841.752713 12750.300305 12478.225738 12583.428026 17817.714255 12329.130275 15059.242242 13697.631468 16020.270570 16418.850620 20019.538593 20033.307121 14998.052470 8538.607809 15453.384121 13088.442550 16439.033946 9712.484675 10226.065521 13120.818941 13602.757091 13689.623784 14686.020663 12152.523159 14280.842238 15230.323950 12362.917865 17355.345600 15131.877209 20287.426817 17910.291719 15131.832795 10952.650956 21279.930775 15411.567943 10499.605989 10198.463770 10302.919613 11898.440456 10474.464224 10525.194994 14350.446155 10048.252237 11044.694816 16651.720710 12762.243954 14284.668513 17719.211939 16121.552397 17316.282944 17556.008807 18053.073857 11553.244469 19811.186533 16283.769014 11984.920096 12359.782816 8848.619955 12548.307460 8138.999004 13465.183241 16074.111280 16497.831534 11939.400131 13493.128118 12700.873164 19330.360944 14853.514660 17493.457139 17142.265533 7399.405052 19211.395670 15712.144463 9414.241584 12786.792788 19042.187143 11859.895673 12737.292335 16428.385853 11874.831506 17802.948625 12215.646070 14133.995938 16429.136329 15888.772869 14251.873934 17930.387204 18410.972341 18177.149836 17977.943360 17209.920839 17213.696816 7403.550696 17185.372352 11710.469123 18498.360553 17679.931818 15107.309697 16047.494472 15875.759063 14027.785005 17480.426900 13381.273420 18280.789418 19195.037994 17718.853526 18619.841357 17451.306412 15674.846558 14035.785047 17664.921516 13588.520097 16795.529997 16056.503605 19575.940426 18895.075506 11124.597377 14691.717067 9602.645173 17196.996247 14744.570005 13360.081960 19015.904780 19859.005608 19076.165403 17672.461857 16530.016404 17173.238444 13969.187253 17423.608668 20797.690557 17132.699118 8406.104904 7877.930207 12226.135634 8906.782504 14434.226958 12298.387362 10188.963480 9317.873699 15851.502667 17007.291093 19665.334501 19479.616040 17427.254461 16714.658032 15873.313285 19519.979873 18778.561259 18448.924292 18216.649412 18707.215785 14887.934741 16052.609790 7878.460455 10021.693478 6440.223608 15822.899528 16927.967005 16144.902373 13522.313995 14390.407607 11062.749978 19850.716301 14527.186975 17411.404216 20465.212939 19412.361265 18358.777869 19745.101140 19779.872042 18532.499896 20306.635754 16552.882979 1882.091982 9187.378251 5556.834789 9489.496504 13908.815440 15310.628772 10676.238885 13635.431539 12204.972524 15355.360516 15259.596974 18778.533454 13135.731075 16806.264715 18360.258113 19085.323770 17355.294366 18321.165873 17725.991928 12778.263851 2054.865078 3917.555830 3124.820731 7136.929277 5029.950359 10622.445487 13340.916757 15790.584061 11329.812090 14132.607007 13057.411655 12053.953315 17538.077506 15875.183664 19215.402511 20202.647562 16616.718701 16974.930820 10917.655237 18431.416129 2914.894330 3717.825521 2280.181474 2224.160381 13039.254354 6581.817308 12091.817241 9833.254642 11396.416311 12561.237647 11042.630585 12274.810469 13491.239548 19886.223048 16543.426568 17359.560822 17486.739272 18862.265868 14355.547660 18800.683747 2206.306434 2061.496392 4366.347964 3154.227881 4572.090594 9246.352253 7738.046477 10759.293125 10330.846018 13083.786721 9846.131113 14094.833775 20280.514698 14624.229934 16423.589076 19819.883880 18920.121129 15448.996790 17190.578864 14595.840091 2964.987052 3315.954470 4396.536909 2038.222273 4136.541110 9317.609161 7175.530723 10238.572153 11955.788890 8394.564009 12851.817491 13674.685363 11343.434534 12540.924481 17880.016563 17192.114555 17200.780906 17956.773109 15957.918058 16466.996372 2431.381666 2004.753637 2601.569957 2313.007974 5645.612720 6859.137870 8709.474829 10557.119668 12397.122419 12124.382693 15061.440525 16297.740951 13426.071692 18837.128311 19922.920319 19715.832347 18525.070388 19308.697199 17586.315775 16704.128827 5408.990593 -1290.326254 3170.757699 5272.924913 63