<VTKFile type="PolyData">
<PolyData>
<Piece NumberOfPoints="6715" NumberOfVerts="6715" NumberOfLines="0" NumberOfStrips="0" NumberOfPolys="0">
<PointData>
<DataArray type="Float64" Name="Pressure" format="ascii">
 5821.968007 5320.957423 4944.827962 5231.829113 5795.221434 6017.451359 5666.006856 4835.398317 4090.901269 2634.403207 425.403578 -1964.152540 -1777.558816 5423.749585 5664.410491 -6212.954062 -13961.259309 -8603.401017 5772.294746 18506.881511 13244.358360 5399.342041 871.151378 -689.621770 933.468216 3462.565451 4986.428019 5754.765596 5956.045207 6221.464505 6751.278050 7328.637801 7765.992386 8085.989503 8680.778389 9091.919656 9380.765312 9454.795679 9687.637863 10364.968089 11131.848407 11302.822981 11376.848332 11408.029175 11555.898040 11660.514407 11659.251715 11678.717823 11865.650026 12265.590976 12227.325072 12167.859717 12092.569601 12020.893790 12118.166304 12379.408026 12810.403532 13270.297078 13700.454427 13963.359733 14134.313983 14012.961148 13578.633128 13331.237558 13457.794437 13971.137861 14275.413939 14249.572094 14535.854556 15261.252876 15851.409073 15998.307830 16161.947053 16319.023949 16550.167034 16588.169203 16272.104742 15647.179989 15529.824307 15605.791999 15538.533387 15773.514514 16240.820224 16544.301296 16550.720758 16633.580519 16863.010307 17125.205697 17278.954080 17279.860533 17272.896929 17203.420318 17083.034381 17319.599900 17615.758946 17927.695514 18088.658903 18366.739786 18275.743695 18407.457469 19001.551189 19672.644628 20089.285494 19744.409696 19128.112938 19101.348505 19421.590379 19532.476708 19710.139837 19919.777529 20041.035720 20142.037228 20579.412513 21236.456411 21444.079809 21370.272690 21555.221716 22048.864224 22300.302553 22328.812109 22669.312698 23148.102405 23377.876050 23387.992650 23523.957466 23922.217405 24004.765578 23763.647018 23856.267157 24301.096887 24712.932496 24748.455828 24918.993786 24902.619279 24883.914034 24701.838853 24640.658964 24344.258254 23667.462365 23797.093105 24048.575863 24250.472422 24482.267335 24586.744993 24372.026885 24027.490939 23745.440241 23905.741920 23599.840964 23059.804276 23237.318220 22910.431233 22600.069456 22045.912649 21664.149191 21437.304636 21103.962122 20889.585531 20925.858245 20850.833675 20418.719215 19576.108048 18687.258456 17913.568183 17695.361755 17533.542764 17512.879459 17613.810444 17581.301752 17498.495983 17410.534121 17149.381492 16783.178661 16421.466386 16076.265942 16010.342417 16000.429639 15983.061322 15789.550209 15581.890827 15443.336030 15335.466804 15355.332858 15304.119026 15082.095704 14919.382115 14749.055395 14605.098797 14460.021110 14225.377961 14067.352193 14145.210332 14279.605668 14248.325579 14056.288985 13805.876627 13572.930911 13418.797084 13161.636352 12895.231441 12718.758343 5392.946397 5533.368202 5472.958450 5336.340141 5397.506656 5483.129314 5450.432023 5142.845668 4668.894884 4206.104243 3406.556551 2055.841182 -78.046698 -1449.094746 694.585609 6718.037200 10983.503818 11194.161310 10620.595727 10573.090925 6994.655404 228.823284 -3477.130863 -3140.235066 -1124.163999 1261.427734 3312.409905 4718.157300 5511.829815 6017.858501 6522.369760 6962.428971 7364.827398 7898.823888 8479.728288 9049.791246 9460.978801 9634.171718 9823.961867 10016.110729 10361.737234 10865.189251 11203.386879 11354.588191 11373.771681 11376.343101 11426.913895 11588.761973 11802.182664 12003.657507 12204.585942 12273.602987 12111.975292 11996.869905 12083.887757 12274.250916 12575.765696 12938.953718 13299.588474 13656.900728 13941.484774 14129.562939 14189.234506 14097.254120 14036.397914 14138.389736 14410.663914 14633.431302 14785.699163 15099.222591 15578.150546 15927.329615 16154.628935 16388.973549 16543.153730 16623.247810 16558.710276 16386.023746 16196.929330 16017.631593 15855.698166 15859.837125 16049.514988 16333.152438 16594.568351 16683.619011 16699.479784 16797.896947 16982.478749 17158.906735 17169.918754 17173.518310 17239.777735 17324.454219 17578.150429 17881.523719 18066.981650 18226.934803 18443.348180 18634.606247 18906.393454 19413.508834 19969.461265 20255.513651 20128.456627 19774.196059 19705.931957 19840.878658 19843.556935 19999.538221 20306.572094 20336.850024 20456.179291 21017.422626 21623.023140 22013.334918 22039.846910 21990.655442 22185.989320 22549.674302 22877.772821 23093.626870 23319.489336 23652.286434 23763.037332 23785.080405 23928.604058 23949.068513 23828.079608 23840.164612 24019.298537 24419.634265 24728.265385 24885.821282 24965.361944 24709.422402 24459.585171 24495.267538 24412.882800 24085.817288 24032.295600 24155.091145 24231.870911 24366.648902 24541.043279 24478.425014 24284.041847 24038.831584 23808.992206 23645.830361 23338.211455 23066.478434 22881.338977 22524.857596 21974.978046 21568.836710 21285.056709 21041.550796 20851.587367 20704.551488 20468.438904 20087.220410 19451.978595 18775.956418 18431.457103 18268.224794 18069.723241 17907.453377 17766.536600 17625.968032 17511.764998 17387.188664 17214.830051 16873.336493 16485.219010 16239.810179 16125.912823 16065.346160 16005.046660 15889.162642 15702.335753 15503.165944 15360.592145 15266.390507 15181.444347 15058.895638 14890.555871 14715.852160 14569.161285 14399.712289 14194.257229 14074.903491 14092.995966 14144.664415 14116.556649 13961.234496 13741.266524 13548.370415 13349.359326 13124.370858 12901.207829 12719.805318 12623.286709 5246.638413 5283.830155 5328.227791 5314.522570 5293.357944 5305.303734 5287.182023 5199.698953 4983.006615 4695.149450 4372.115976 3774.209590 2538.014757 432.662577 -1835.984151 -2988.986407 -2071.910166 694.455926 2324.695301 2528.468945 969.763462 -2537.104877 -5294.013056 -5515.444518 -3480.968138 -787.097926 1479.356384 3175.741911 4417.613674 5288.673864 5952.696353 6547.441218 7061.882627 7524.911833 8023.344858 8546.421855 9015.821307 9404.301650 9669.280176 9903.199512 10141.465200 10423.818267 10764.072179 11062.280239 11218.117171 11270.982038 11291.602330 11352.675015 11492.848180 11680.368986 11850.786483 11977.265364 12059.244793 12048.838755 12053.824500 12167.556522 12380.366210 12689.788942 13044.664440 13404.661379 13756.291029 14049.588877 14240.967643 14326.124447 14328.940744 14343.458002 14443.748133 14627.163631 14841.560001 15067.712558 15353.914108 15691.567130 15988.101519 16244.359395 16456.299231 16582.308552 16608.203284 16538.334722 16410.628684 16283.278398 16145.316364 16037.482573 16039.126604 16145.317106 16311.538174 16486.194102 16626.847633 16725.557097 16827.357004 16967.153907 17102.157776 17180.530124 17247.109446 17356.977570 17513.827330 17733.280758 17976.659487 18181.099105 18378.712448 18587.720418 18836.486862 19158.864153 19572.814349 19975.104642 20208.461891 20219.189779 20091.699662 20031.557512 20075.717163 20105.126492 20221.810500 20408.352904 20552.742519 20774.955221 21168.736228 21592.252253 21927.653948 22114.699558 22216.434007 22370.226720 22627.771633 22931.200633 23185.913584 23410.351575 23653.620565 23855.703530 24011.583410 24133.900450 24166.176245 24106.657603 24080.935380 24185.762852 24394.343356 24565.680015 24680.860968 24757.698322 24688.692726 24595.517797 24549.153840 24437.840024 24304.834562 24267.455860 24345.083424 24441.179621 24533.224588 24574.098788 24475.696876 24280.687660 24039.696587 23760.478997 23512.573883 23256.405722 22961.722741 22689.625804 22325.881493 21915.913753 21550.622386 21254.541098 21022.835535 20840.994213 20660.927719 20419.508368 20082.299680 19611.789860 19134.922349 18805.601012 18526.265442 18268.483999 18039.350415 17832.707697 17653.926534 17498.990551 17348.308577 17152.594083 16871.198863 16574.144468 16348.593329 16188.882906 16072.521464 15973.305397 15861.095034 15704.114906 15525.879354 15376.175387 15245.034564 15128.991357 15020.150396 14889.623256 14742.326966 14581.168071 14391.964130 14213.775499 14101.585113 14061.943336 14046.439902 13988.830886 13864.750229 13700.038499 13523.722754 13330.206858 13126.609028 12919.179668 12732.102326 12620.664993 12584.216558 12718.758343 12715.187665 12663.270355 12462.801749 12056.722179 11584.064782 11196.275023 10856.407350 10333.752242 9660.874162 9068.267975 8601.226152 8062.640972 7371.263573 6842.997179 6444.994395 5937.715031 5416.540413 5204.622838 5110.025586 4947.339750 4658.997490 4441.557484 4201.946708 4040.969854 3925.543083 3801.665374 3674.629428 3542.249946 3403.692796 3259.348206 3110.248703 2957.788927 2803.624524 2649.512109 2497.153782 2348.080141 2203.577148 2064.652162 1932.030747 1806.175142 1687.316209 1575.492218 1470.589445 1372.381049 1280.561975 1194.778660 1114.653135 1039.801673 969.848459 904.434996 843.225979 785.912392 732.212511 681.871399 634.659388 590.369947 548.817234 509.833563 473.266943 438.978780 406.841824 376.738375 348.558755 322.200046 297.565059 274.561520 253.101441 233.100634 214.478368 197.157111 181.062354 166.122497 152.268769 139.435181 127.558487 116.578161 106.436373 97.077959 88.450387 80.503719 73.190559 66.465993 60.287526 54.615007 49.410550 44.638447 40.265080 36.258830 32.589981 29.230624 26.154559 23.337186 20.755369 18.387206 16.211481 14.206041 12.342767 10.563844 8.810891 7.882220 12623.286709 12620.423558 12578.369904 12480.710080 12266.930695 11889.140687 11466.855921 11086.508549 10685.101284 10195.605604 9599.563889 9010.513273 8475.248214 7916.574484 7326.848574 6810.135370 6341.531933 5887.083244 5487.586246 5210.478965 5019.155957 4857.690250 4644.771237 4392.717635 4194.413778 4053.565993 3927.211484 3802.231986 3675.104160 3542.646406 3404.000037 3259.592770 3110.426004 2957.888707 2803.642528 2649.450963 2497.021387 2347.887718 2203.337459 2064.378117 1931.734419 1805.867152 1687.005418 1575.185636 1470.292308 1372.096999 1280.293294 1194.526527 1114.417877 1039.582984 969.645604 904.246966 843.051620 785.750501 732.061906 681.730963 634.528098 590.246888 548.701605 509.724675 473.164205 438.881695 406.749974 376.651410 348.476382 322.122016 297.491159 274.491566 253.035267 233.038091 214.419317 197.101418 181.009893 166.073144 152.222402 139.391677 127.517724 116.540020 106.400735 97.044704 88.419400 80.474886 73.163766 66.441132 60.264490 54.593695 49.390862 44.620289 40.248361 36.243464 32.575887 29.217728 26.142799 23.326531 20.745882 18.379242 16.206355 14.208292 12.367832 10.674831 9.153205 8.140057 7.720074 12584.216558 12584.606083 12564.118297 12494.931913 12364.153352 12141.889611 11823.143577 11447.496442 11039.447770 10590.303305 10089.379804 9541.329938 8976.662439 8416.408643 7858.720525 7310.550938 6793.146757 6313.260422 5877.170054 5504.494328 5212.818829 4985.164562 4786.235623 4585.390596 4385.169708 4208.926601 4060.404461 3928.513488 3802.489239 3675.023886 3542.427515 3403.740370 3259.358914 3110.251514 2957.789818 2803.624825 2649.512213 2497.153818 2348.080154 2203.577153 2064.652164 1932.030748 1806.175142 1687.316209 1575.492218 1470.589445 1372.381049 1280.561975 1194.778660 1114.653135 1039.801673 969.848459 904.434996 843.225979 785.912392 732.212511 681.871399 634.659388 590.369947 548.817234 509.833563 473.266943 438.978780 406.841824 376.738375 348.558755 322.200046 297.565059 274.561520 253.101441 233.100634 214.478368 197.157111 181.062354 166.122497 152.268769 139.435181 127.558487 116.578161 106.436373 97.077959 88.450387 80.503719 73.190559 66.465993 60.287526 54.615007 49.410550 44.638447 40.265080 36.258831 32.589986 29.230639 26.154608 23.337347 20.755895 18.388928 16.217111 14.224460 12.402794 10.764524 9.371396 8.325535 7.787562 7.631240 7.882220 7.287522 6.339514 5.577446 4.932212 4.365219 3.861708 3.413288 3.013848 2.658286 2.342099 2.061238 1.812043 1.591202 1.395717 1.222880 1.070247 0.935615 0.817000 0.712621 0.620877 0.540335 0.469710 0.407855 0.353744 0.306465 0.265204 0.229237 0.197923 0.170692 0.147040 0.126521 0.108741 0.093353 0.080051 0.068565 0.058661 0.050129 0.042789 0.036482 0.031069 0.026428 0.022455 0.019057 0.016154 0.013678 0.011568 0.009772 0.008246 0.006949 0.005850 0.004919 0.004131 0.003465 0.002904 0.002430 0.002031 0.001696 0.001414 0.001178 0.000980 0.000815 0.000676 0.000560 0.000464 0.000384 0.000317 0.000261 0.000215 0.000177 0.000145 0.000119 0.000097 0.000079 0.000064 0.000051 0.000041 0.000032 0.000024 0.000018 0.000012 0.000006 0.000001 -0.000004 -0.000009 -0.000014 -0.000020 -0.000027 -0.000035 -0.000044 -0.000055 -0.000067 -0.000082 -0.000100 -0.000122 -0.000148 -0.000179 -0.000216 -0.000260 -0.000313 -0.000376 -0.000451 -0.000541 -0.000648 -0.000774 -0.000924 -0.001103 -0.001313 -0.001563 -0.001857 -0.002204 -0.002612 -0.003092 -0.003657 -0.004318 -0.005094 -0.006001 -0.007061 -0.008299 -0.009741 -0.011420 -0.013372 -0.015639 -0.018267 -0.021312 -0.024833 -0.028900 -0.033593 -0.038999 -0.045221 -0.052371 -0.060577 -0.069984 -0.080752 -0.093064 -0.107121 -0.123151 -0.141407 -0.162170 -0.185755 -0.212510 -0.242821 -0.277116 -0.315868 -0.359599 -0.408885 -0.464357 -0.526710 -0.596706 -0.675177 -0.763034 -0.861270 -0.970964 -1.093292 -1.229527 -1.381049 -1.549347 -1.736031 -1.942832 -2.171611 -2.424364 -2.703228 -3.010486 -3.348572 -3.720076 -4.127747 -4.574500 -5.063412 -5.597734 -6.180882 -6.816446 -7.508183 -8.260019 -9.076046 -9.960514 -10.917830 -11.952546 -13.069354 -14.273071 -15.568632 -16.961069 -18.455500 -20.057107 -21.771118 -23.602783 -25.557352 -27.640044 -29.856024 -32.210370 -34.708043 -37.353858 -40.152464 -43.108355 -46.225987 -49.510250 -52.968096 -56.614041 -60.488150 -64.735844 -69.595931 -72.472437 7.720074 7.519336 6.983466 6.243861 5.548731 4.921615 4.360204 3.858552 3.410860 3.011790 2.656475 2.340485 2.059794 1.810752 1.590048 1.394686 1.221961 1.069428 0.934886 0.816352 0.712046 0.620367 0.539884 0.469311 0.407502 0.353434 0.306191 0.264963 0.229026 0.197738 0.170530 0.146898 0.126397 0.108632 0.093258 0.079968 0.068494 0.058598 0.050075 0.042742 0.036441 0.031034 0.026398 0.022429 0.019034 0.016135 0.013662 0.011554 0.009760 0.008235 0.006940 0.005842 0.004912 0.004126 0.003461 0.002900 0.002427 0.002028 0.001694 0.001412 0.001176 0.000979 0.000813 0.000675 0.000560 0.000463 0.000383 0.000316 0.000261 0.000215 0.000177 0.000145 0.000119 0.000097 0.000079 0.000064 0.000051 0.000041 0.000032 0.000024 0.000018 0.000012 0.000006 0.000001 -0.000004 -0.000009 -0.000014 -0.000020 -0.000027 -0.000035 -0.000044 -0.000055 -0.000067 -0.000082 -0.000100 -0.000122 -0.000148 -0.000178 -0.000215 -0.000260 -0.000312 -0.000375 -0.000451 -0.000540 -0.000647 -0.000773 -0.000923 -0.001101 -0.001312 -0.001561 -0.001854 -0.002201 -0.002609 -0.003089 -0.003652 -0.004313 -0.005088 -0.005994 -0.007053 -0.008289 -0.009730 -0.011408 -0.013358 -0.015622 -0.018249 -0.021290 -0.024808 -0.028872 -0.033560 -0.038962 -0.045179 -0.052323 -0.060523 -0.069922 -0.080682 -0.092984 -0.107031 -0.123050 -0.141293 -0.162042 -0.185611 -0.212348 -0.242639 -0.276913 -0.315641 -0.359347 -0.408603 -0.464044 -0.526362 -0.596320 -0.674750 -0.762562 -0.860748 -0.970389 -1.092659 -1.228831 -1.380284 -1.548509 -1.735114 -1.941830 -2.170518 -2.423174 -2.701933 -3.009080 -3.347048 -3.718427 -4.125965 -4.572577 -5.061342 -5.595507 -6.178491 -6.813883 -7.505441 -8.257091 -9.072923 -9.957190 -10.914298 -11.948800 -13.065387 -14.268880 -15.564210 -16.956413 -18.450607 -20.051975 -21.765745 -23.597171 -25.551500 -27.633956 -29.849703 -32.203819 -34.701266 -37.346850 -40.145191 -43.100684 -46.217463 -49.499358 -52.949831 -56.571726 -60.365605 -64.311864 -68.272466 -71.067248 -72.166939 7.631240 7.572469 7.320263 6.808971 6.178429 5.528871 4.917329 4.360670 3.860317 3.412862 3.013718 2.658246 2.342087 2.061234 1.812042 1.591202 1.395717 1.222880 1.070247 0.935615 0.817000 0.712621 0.620877 0.540335 0.469710 0.407855 0.353744 0.306465 0.265204 0.229237 0.197923 0.170692 0.147040 0.126521 0.108741 0.093353 0.080051 0.068565 0.058661 0.050129 0.042789 0.036482 0.031069 0.026428 0.022455 0.019057 0.016154 0.013678 0.011568 0.009772 0.008246 0.006949 0.005850 0.004919 0.004131 0.003465 0.002904 0.002430 0.002031 0.001696 0.001414 0.001178 0.000980 0.000815 0.000676 0.000560 0.000464 0.000384 0.000317 0.000261 0.000215 0.000177 0.000145 0.000119 0.000097 0.000079 0.000064 0.000051 0.000041 0.000032 0.000024 0.000018 0.000012 0.000006 0.000001 -0.000004 -0.000009 -0.000014 -0.000020 -0.000027 -0.000035 -0.000044 -0.000055 -0.000067 -0.000082 -0.000100 -0.000122 -0.000148 -0.000179 -0.000216 -0.000260 -0.000313 -0.000376 -0.000451 -0.000541 -0.000648 -0.000774 -0.000924 -0.001103 -0.001313 -0.001563 -0.001857 -0.002204 -0.002612 -0.003092 -0.003657 -0.004318 -0.005094 -0.006001 -0.007061 -0.008299 -0.009741 -0.011420 -0.013372 -0.015639 -0.018267 -0.021312 -0.024833 -0.028900 -0.033593 -0.038999 -0.045221 -0.052371 -0.060577 -0.069984 -0.080752 -0.093064 -0.107121 -0.123151 -0.141407 -0.162170 -0.185755 -0.212510 -0.242821 -0.277116 -0.315868 -0.359599 -0.408885 -0.464357 -0.526710 -0.596706 -0.675177 -0.763034 -0.861270 -0.970964 -1.093292 -1.229527 -1.381049 -1.549347 -1.736031 -1.942832 -2.171611 -2.424364 -2.703228 -3.010486 -3.348572 -3.720076 -4.127747 -4.574500 -5.063412 -5.597734 -6.180882 -6.816446 -7.508183 -8.260019 -9.076046 -9.960514 -10.917830 -11.952546 -13.069354 -14.273071 -15.568632 -16.961069 -18.455500 -20.057107 -21.771118 -23.602783 -25.557351 -27.640043 -29.856022 -32.210364 -34.708025 -37.353802 -40.152281 -43.107756 -46.224037 -49.503899 -52.947412 -56.546644 -60.269169 -64.010941 -67.488635 -70.243768 -71.636752 -71.998561 -72.472437 -75.970256 -82.313133 -88.407909 -94.452572 -100.602750 -106.893785 -113.331962 -119.914189 -126.634096 -133.483874 -140.454854 -147.537704 -154.722513 -161.998847 -169.355793 -176.782007 -184.265766 -191.795007 -199.357373 -206.940244 -214.530758 -222.115822 -229.682103 -237.216013 -244.703687 -252.130971 -259.483437 -266.746442 -273.905250 -280.945245 -287.852197 -294.612609 -301.214080 -307.645730 -313.898772 -319.967549 -325.851596 -331.559598 -337.116201 -342.572330 -348.018012 -353.591873 -359.472314 -365.838177 -372.889135 -381.172109 -390.837468 -398.771932 -399.804987 -444.438180 -297.402046 475.554420 721.426417 698.970050 239.555580 -84.105570 -254.787578 -339.875891 -342.659013 -297.328590 -255.935640 -261.197147 -370.783057 -474.438598 -735.129426 -1236.771017 -2062.807347 -3199.607676 -4031.878418 -3645.697443 -2441.724872 -1725.132616 -1411.970445 -1441.958564 -1552.179664 -905.275983 -191.908099 300.765335 -53.177951 -448.421013 -865.072554 -774.033625 -546.509391 -75.481465 436.599837 821.021106 1211.631884 1091.817937 1159.938650 1628.189076 1784.877691 2106.257078 2522.614381 3074.317266 4008.045660 4779.386156 5377.572927 5634.564429 5718.106601 5821.968007 -72.166939 -73.679390 -77.363845 -82.766316 -88.525776 -94.482720 -100.606881 -106.890268 -113.326336 -119.908164 -126.628214 -133.478321 -140.449706 -147.533001 -154.718284 -161.995115 -169.352578 -176.779327 -184.263636 -191.793441 -199.356383 -206.939840 -214.530952 -222.116624 -229.683526 -237.218068 -244.706389 -252.134333 -259.487470 -266.751150 -273.910630 -280.951279 -287.858853 -294.619836 -301.221811 -307.653873 -313.907194 -319.976031 -325.859749 -331.566726 -337.121126 -342.573218 -348.012370 -353.577078 -359.446626 -365.794790 -372.762221 -380.726659 -390.152616 -398.331666 -395.439862 -383.693960 -357.894641 -110.847067 233.914767 269.371934 20.362842 -171.775736 -288.207626 -336.890771 -329.379069 -305.747654 -293.611106 -303.601763 -374.887815 -496.904893 -681.100945 -1019.083366 -1590.757196 -2295.255505 -2839.268097 -2731.647498 -2161.960544 -1661.260392 -1434.429200 -1260.911523 -1076.069294 -712.702620 -211.280818 -89.550574 -265.075269 -409.849913 -568.478599 -591.149261 -323.421637 3.941310 573.491626 998.028769 1116.119324 1172.086261 1361.439427 1739.240043 2097.127782 2502.879291 2915.591570 3448.372960 4143.449334 4717.733432 5266.393629 5784.762193 5928.901151 5670.200417 5392.946397 -71.998561 -72.545111 -74.475666 -78.227404 -83.110705 -88.647953 -94.526486 -100.625432 -106.900749 -113.334099 -119.914845 -126.634297 -133.483935 -140.454873 -147.537709 -154.722515 -161.998848 -169.355793 -176.782007 -184.265766 -191.795007 -199.357373 -206.940244 -214.530758 -222.115822 -229.682103 -237.216013 -244.703687 -252.130971 -259.483437 -266.746442 -273.905250 -280.945245 -287.852197 -294.612609 -301.214080 -307.645730 -313.898772 -319.967548 -325.851593 -331.559585 -337.116148 -342.572154 -348.017459 -353.590125 -359.466035 -365.806686 -372.710663 -380.452643 -389.503844 -397.109961 -391.736634 -355.144734 -273.698501 -131.743146 27.486320 36.916735 -78.324429 -208.119373 -300.452859 -339.505972 -337.406503 -322.165215 -312.860394 -322.973427 -367.438069 -456.202676 -615.650543 -913.357321 -1359.284657 -1849.354995 -2181.477416 -2183.980214 -1912.775538 -1598.296223 -1371.553903 -1176.276997 -961.836140 -701.019884 -449.937742 -348.006738 -349.879239 -389.971179 -419.985231 -368.601955 -175.055420 107.652151 496.978326 811.629878 1001.673913 1197.377448 1454.960269 1797.816217 2163.885818 2593.437788 3089.509017 3642.497500 4212.716850 4714.636237 5120.865884 5441.850127 5535.090349 5431.018786 5304.848151 5246.638413 2143.597235 511.481710 -1997.354134 1181.619544 1566.399687 779.902630 1434.548698 543.368420 1447.783400 1034.806817 1933.333129 723.080404 1508.913569 2259.879825 4578.833489 1328.435454 3227.791674 5752.366871 4765.669942 4636.918140 1958.308058 -468.989894 372.500271 1541.377700 1452.845261 -270.626615 778.066975 1073.784170 911.268774 3440.965927 1444.386776 1760.308610 2350.486878 595.999245 2327.522302 4833.113331 1842.890804 1535.423091 5324.163891 4518.300040 -1309.725079 1126.122611 1509.159567 1779.088273 3874.296065 3507.725133 -1759.108963 -1452.821519 2063.134676 2664.743281 3448.452252 1343.053544 198.509292 3448.683765 2759.340143 4679.795593 3792.416281 4470.972690 4529.111079 4506.096398 11104.004619 3791.739433 3497.834966 -4284.778053 1270.770079 194.298615 787.007865 948.193798 1017.093427 1994.938009 4518.901368 8768.952160 90.648137 1190.913803 2709.240217 4094.717971 2847.923169 4753.891565 4562.660858 5809.349416 8049.015815 617.023264 -1013.308079 3850.937262 7514.476092 4810.510097 -17063.916999 11061.959737 -1431.550471 750.249546 2781.025342 3733.194346 -2202.686679 1450.035389 1210.725891 4707.714818 1894.946578 12410.166293 5987.699634 6007.018353 -3065.944814 5915.428405 3937.255625 -2038.311555 5450.052908 -321.103606 7173.678054 -4898.003993 1238.505621 2903.593415 -1426.273086 4321.454850 3925.510222 4971.745866 14348.690233 4081.257205 817.337054 1079.818655 4607.042256 2361.469663 3425.853688 1799.563363 6680.875288 4614.234516 5115.301470 -793.749047 7562.807805 1880.681408 -20854.388562 -18095.142426 -1254.522524 -3631.440142 3193.392244 4617.210164 -5324.865423 -13162.749520 2486.855111 3264.747610 2979.314381 5062.318568 -9684.267701 -61.090431 -18325.965889 9534.489203 7220.091072 -610.146765 2084.413802 6996.787470 5946.297784 -9464.232551 -730.351855 -1671.180446 2667.781818 -26291.997209 2279.436160 3331.349733 -15986.631588 -662.662317 -320.139598 2010.085705 7879.466628 6352.540509 6627.832191 -18156.829395 -11618.021035 -3243.890414 8429.190185 -4120.353759 5003.537754 2364.791902 -20144.924438 585.647448 -894.940229 -1953.265416 4149.582907 -191.813832 -360.708578 3562.802441 4213.577872 6135.459477 20364.385665 9721.843472 5262.636990 9113.908791 847.280313 -10175.715929 -24726.030513 10211.467646 7001.674883 8568.761297 7199.241146 11214.254758 6771.402087 -11394.456730 6927.568865 -2582.810513 11612.719019 -3087.419392 9737.237533 3558.882523 12184.919536 5261.448616 4257.399417 8104.590804 6159.891314 7370.155901 10533.632408 7378.921715 -581.192943 -22163.046996 7308.058647 7288.994472 3853.025741 11322.385614 9034.977584 -22956.257048 2296.067027 4182.121811 1840.912320 7786.431909 7806.015233 11367.870649 -19659.561535 9145.347928 -200.363087 6383.183595 7533.313548 3952.747669 8226.896277 10812.729683 8591.844298 20323.601708 7164.996233 6861.959969 9894.216177 6227.650544 4904.748446 -440.651901 6481.024325 21006.001998 -25440.934527 9577.649574 7444.690932 1765.553233 5500.173456 -11650.752377 8927.639976 9681.208900 7259.356368 7509.401617 7596.812750 8544.575842 7155.031248 7782.715157 8320.342065 7807.028765 17221.841141 10235.069740 10274.733219 7779.303344 6424.278683 5390.477524 7348.453170 7111.458640 1225.838605 8146.493565 9181.460872 7096.672976 6525.806845 8094.837906 2712.254393 7476.250468 8011.396307 9192.650362 6774.454910 5171.151299 10341.115600 11000.762896 5585.078683 -2814.591959 7443.195798 9272.255262 6897.721730 8405.322850 9512.109200 6143.234718 10883.440147 6992.108847 8335.557033 7192.977493 7700.983960 6895.335947 7757.059710 8965.139049 6384.585171 9147.830556 10832.598758 10231.354570 10043.527547 10578.932122 7882.678965 7613.121040 4801.402197 -1911.765490 7535.636042 6797.527320 9243.654921 7408.743701 7750.675053 8569.733805 8905.586377 10293.533349 10795.461815 6656.079558 6910.321686 6954.283932 9596.120413 4767.266909 7622.103028 11230.335184 6675.141876 8964.102916 10473.533669 7326.192668 7895.099385 2968.377063 7727.145428 7472.530050 9322.654065 8201.910455 10337.957913 10083.643852 11010.668987 8529.290254 7815.207640 11173.858455 4919.861205 14357.854551 -24396.089626 -21154.292748 8074.766366 7599.417273 4919.525294 5926.075210 5564.569811 7500.298824 11780.582755 10101.992043 10658.695459 9688.383448 7938.398916 9809.001275 8564.624817 11007.899275 10472.657086 10164.895891 3820.640096 10787.661192 10149.944146 -5803.644827 9526.857505 11134.192492 7009.945130 10760.632981 11006.914835 11426.870049 11390.638568 12654.054976 9695.503845 7480.842852 8060.315304 13234.286107 9330.163457 10590.566998 8861.013756 7470.627009 10193.652517 7584.194444 10124.300880 8273.622425 10125.583817 7299.524972 10783.017090 11496.473049 10246.720180 8944.192521 9845.503367 7673.281179 6432.555777 11913.923619 12890.742605 11545.022898 11209.354621 10556.759347 11583.689826 11230.172919 9908.167978 6840.840429 -25768.117292 2326.849660 9306.541058 6735.943381 11737.488478 8878.757253 7443.331925 11170.510403 12466.959550 8270.435249 8811.745422 9329.568365 10844.873511 8041.472457 12417.472812 7897.242643 12222.926092 11388.898537 11726.719607 10775.297738 10093.848408 7312.793334 11671.705735 8227.732256 10071.316327 6104.983808 6172.830173 8963.642810 10392.100326 8781.427427 10734.969202 9038.690102 10018.626361 10209.354632 8118.946534 12604.122692 11708.637153 11627.990597 11407.186851 8994.971673 10995.892677 2066.175909 10147.646311 6034.081887 7843.103427 6300.502274 7882.482398 7622.394619 7275.143582 11594.521172 5172.271610 7288.677091 13629.212253 7593.507848 11438.993596 12846.599688 9980.407702 12487.084393 11397.655902 11159.924689 1242.289385 11505.308298 11259.654796 8773.259877 7729.862839 6387.636098 9281.352521 6191.455294 9028.827256 11437.716051 12167.728641 7224.819949 9212.401323 8900.190673 11540.533925 11606.983987 12207.445214 12164.115514 6054.919953 12734.387458 9091.735827 3888.902036 8798.307119 14651.240954 9401.350275 8923.302977 13278.897432 7083.490322 14250.999271 9464.256028 10994.883347 12661.246698 12586.720517 10891.487391 12492.163169 11385.279658 13089.064966 10829.649537 11165.218626 12388.098003 6176.752982 11476.939631 7944.987125 11933.103792 13114.303248 12668.794434 9392.627314 12961.505134 10493.921970 14849.065665 9728.631519 14669.786318 14006.350168 11672.811739 12322.040307 12529.502338 11724.545128 9400.969091 14461.384602 9113.605766 9636.616563 10424.443377 15663.962980 13440.576905 7683.198479 13737.785994 7291.443697 11116.544484 11784.545561 7311.462390 12693.390875 12238.847655 13274.492814 10650.890364 11917.689775 13334.568177 10167.044892 11312.399172 12864.523414 10237.316113 6816.593376 5789.137509 9233.944609 7683.262698 9201.664042 9650.801960 7767.386037 8494.047646 11719.323994 11134.376444 14248.053039 12693.615279 12872.434687 10688.517149 9642.442377 14734.148731 13501.326965 11579.613884 11066.076945 12902.664350 8133.434117 11060.250872 7179.099071 6936.857194 5565.737774 10054.458463 12684.232994 10063.181227 11089.751651 11311.374119 7389.455869 15171.558953 8790.568895 14940.153683 15514.759123 12626.848449 13653.509730 15198.939410 14876.203050 13492.585861 13862.568824 12691.983753 2073.880879 6767.530483 3143.868259 7341.497081 11260.594815 11612.010802 8372.189685 10208.748091 8916.602797 8745.003654 12303.089915 12654.005698 8798.312746 11070.452227 11675.753419 13103.223936 13672.654385 10769.946793 12092.294929 7386.256367 2695.650465 2682.932644 2411.130162 5701.833414 3552.538193 8103.437623 9332.636119 13226.777084 6794.369410 9454.587870 8417.121030 9166.939176 11375.145714 9740.884746 13590.225049 15685.352044 11000.905514 12703.493116 7594.678417 11894.012142 3495.603665 5285.453440 2982.593640 1573.514295 10310.469707 5250.810892 8112.670204 8168.928765 7116.742319 9719.301520 5808.352721 9796.784514 7737.882005 14167.763977 10145.803900 13149.303310 12081.575532 12002.138596 10127.333422 11248.537518 3542.299633 3322.058104 2814.349517 3032.427446 3458.748348 5605.167905 6964.759173 7196.710619 7024.465034 7262.056775 6239.054449 8498.475882 15033.584420 9105.068142 10296.117867 13464.054238 11841.585221 10893.850370 9935.176498 10261.230713 2962.641713 2421.373456 4961.596400 1862.900358 4281.736877 6284.691893 4689.577241 4926.388971 6831.643025 5885.148122 9102.792471 9030.563569 8015.075097 8063.414408 12386.329492 10545.376824 10867.724707 12520.816209 8684.464757 8536.390252 3117.039982 1349.114460 2633.339637 2855.932583 5062.108391 4070.661958 6651.252103 8612.012188 6666.060722 7673.028609 8743.388818 10398.753913 10616.691358 12915.197892 13210.060774 13198.686044 11757.125933 14004.174396 11926.079230 12001.369148 1511.206709 5258.208703 4281.782253 2890.794485 2542.333705 2133.383062 2443.734621 5003.774623 5072.646429 4978.357906 11845.703787 7802.503525 11147.560967 7651.918335 10761.722229 13833.565252 11561.