<VTKFile type="PolyData">
<PolyData>
<Piece NumberOfPoints="6715" NumberOfVerts="6715" NumberOfLines="0" NumberOfStrips="0" NumberOfPolys="0">
<PointData>
<DataArray type="Float64" Name="Pressure" format="ascii">
 21053.019719 21348.315019 21293.592187 21222.508026 21044.031695 21555.937155 20851.551940 19471.841379 17954.896648 17321.831786 16500.529949 13549.738837 9887.263030 10204.700368 15175.240962 16102.196448 -3629.417961 -24364.978334 -23848.177352 1945.995728 32149.095951 28979.656942 15631.654940 12295.289071 12610.867914 14603.897112 15521.102440 15410.808296 14578.687270 14028.734222 13653.481892 14141.845986 15391.722215 16552.502021 17118.497588 17717.866735 18868.808614 19280.458757 19151.238023 18724.016681 18776.276971 18284.253673 17551.828443 17223.378862 17661.924815 18578.958484 18872.539631 18742.126408 18575.748763 18316.451645 18124.301259 18236.932644 18372.660991 18357.436677 18615.511709 19041.124318 19062.996543 19049.838053 19236.817827 19432.426191 19874.542611 19874.852189 19935.121861 19987.404297 20401.849001 20826.687463 20876.468503 20954.003366 21016.471703 21190.603254 20661.389263 20054.549475 19921.734685 19980.765175 20237.245323 20514.291348 20830.983716 20792.285771 20509.255050 20256.734004 20131.816304 20171.322611 20277.898749 20463.232670 20067.716878 19014.703385 18521.209589 18930.694525 19525.625848 20272.513230 20923.456902 21111.808820 21212.543958 21089.853662 20727.879926 20008.496512 19578.981870 19682.780117 19981.747026 20402.861169 21138.503995 22030.506791 21683.564835 20689.410525 20100.951520 20278.079525 20725.342317 21169.829220 21535.279822 21476.852012 21310.977284 21215.663117 20946.181921 20424.573902 19747.147245 19228.342809 18919.240722 18608.003353 18484.461191 18511.899121 18474.160890 18402.758222 18406.701618 18360.441689 18093.552489 17655.314360 17354.504189 17176.667246 17060.476403 16874.122966 16698.568369 16529.426059 16457.208125 16534.238698 16496.524578 16507.175558 16395.012442 16193.962406 15721.237965 14521.033130 13436.348759 13546.282387 14462.148762 15631.466357 14958.662364 14305.986606 14041.511624 13781.413529 13461.142856 13336.405152 13273.526248 13218.913499 13144.347054 13210.919424 13231.042384 13251.504531 13234.983985 13178.587555 13131.687303 13076.523073 12886.873028 12677.706599 12625.732741 12570.544548 12595.569264 12564.681473 12566.709850 12475.587560 12189.125588 12005.431990 11875.702994 11920.339866 12040.886326 11945.665474 11929.409037 11950.451104 11940.206559 11816.862975 11661.839756 11637.483542 11655.743111 11612.807721 11494.518213 11428.466775 11433.507415 11313.306946 11106.592366 11028.664411 11183.974983 11318.352262 11382.217829 11316.483520 11258.559653 11208.975334 11121.310751 11052.540090 11002.941239 11138.905573 11308.959659 11870.772324 12479.136320 20130.249796 20609.700379 21181.977069 21475.293206 21352.030178 20898.056707 20620.102985 20141.975536 18925.318577 17661.050750 16789.326535 15559.004006 13021.674913 9801.577186 8522.568741 11795.161809 15968.877320 16292.916249 14566.929005 18708.408742 26618.829245 25168.922844 17499.897417 12225.630438 11525.353738 12811.299781 14046.174193 14680.249495 15247.043472 15294.813454 14953.433722 14980.564392 15441.955947 16157.495549 17004.264568 17662.516912 18259.182342 18941.301751 19249.318425 19211.465348 19284.759955 19054.860713 18366.765241 17825.218629 17756.011512 18080.582458 18624.153334 19113.443104 19394.307261 19498.716529 19256.324286 18856.112161 18566.224191 18501.396449 18773.274213 19227.923354 19547.782845 19797.574228 19910.910763 20094.775934 20502.596006 20853.481654 20885.337700 20807.882282 20908.878718 21173.445488 21375.490542 21410.788209 21415.128151 21455.807842 21336.944236 20944.247987 20586.424124 20377.095793 20332.015331 20460.007100 20773.122327 21193.875564 21306.996528 21006.802010 20772.271694 20707.683325 20570.261504 20538.044150 20601.904246 20313.048292 19741.708061 19491.674289 19799.911590 20250.492586 20736.166020 21255.555647 21677.714049 21885.095922 21722.043370 21347.679680 20841.313269 20420.142122 20431.079409 20679.644755 20995.090914 21478.500734 21922.465950 21749.207698 21132.071317 20845.330344 20928.466688 21070.988636 21374.429874 21671.757584 21630.756834 21403.359729 21243.121973 20907.594979 20310.605408 19706.949558 19275.730977 18966.586873 18827.069767 18764.950801 18682.154008 18670.702549 18636.108740 18515.681600 18383.383782 18092.331576 17704.397184 17389.374813 17174.007874 17048.156050 16911.635449 16704.754442 16619.942042 16608.168826 16644.106227 16701.974666 16639.917763 16443.848635 16195.805817 15820.772275 15062.894027 14098.913602 13823.324280 14325.195285 14631.894197 14363.426862 14172.178087 13978.827056 13744.710838 13575.735134 13434.456665 13347.012660 13323.534602 13288.703787 13247.847400 13227.059732 13210.601829 13188.421557 13148.029181 13159.318133 13210.501392 13129.945099 12877.175663 12659.980111 12582.478454 12638.592914 12698.214529 12698.812452 12638.400403 12426.497201 12147.439958 12037.409528 12101.314907 12170.787592 12172.939186 12152.825090 12160.433269 12155.667280 12068.363488 11991.418209 11931.368188 11880.650976 11887.254205 11899.621447 11871.508249 11807.449556 11714.150684 11573.009415 11491.948770 11566.452394 11667.838667 11680.769481 11674.034943 11669.174626 11592.387025 11447.309013 11447.468135 11557.022918 11715.333181 12019.667796 12509.625428 12990.994652 13352.795967 19671.506108 19876.526368 20324.299737 20854.915532 21232.678364 21328.787987 21118.551964 20602.598908 19863.112538 18839.607592 17784.474346 16727.766712 15237.713871 12968.683235 10256.169110 8382.467043 8813.867748 11105.786297 13413.673111 15940.986946 17660.945542 16951.102546 14099.947721 11150.174117 9969.960144 10769.475541 12341.311178 13617.622279 14426.974592 15002.592182 15279.558228 15340.184654 15531.709609 15909.253176 16492.830187 17189.185321 17880.155406 18541.654512 19106.535242 19434.854533 19533.131647 19520.512267 19251.891925 18802.723457 18482.236426 18401.812853 18501.657346 18765.680330 19093.735993 19340.839004 19425.510954 19290.075485 19041.927241 18843.619478 18809.071465 18980.167356 19253.390831 19553.871288 19862.092771 20125.114612 20380.868550 20662.623962 20887.285301 21010.644987 21083.960639 21249.614531 21471.226538 21645.427168 21724.923283 21718.856852 21656.896750 21455.605199 21176.213238 20928.111865 20754.531984 20716.489108 20833.410119 21062.706580 21326.877420 21440.666422 21294.010745 21094.256245 20934.287800 20770.220399 20692.983400 20645.941950 20486.522059 20274.854719 20205.836732 20382.736063 20754.237114 21205.201309 21645.897233 21985.767433 22104.993178 21963.714995 21635.481742 21254.136052 20965.261217 20900.504331 21031.193693 21304.223539 21663.828929 21933.184038 21933.534716 21712.699047 21513.683767 21405.489457 21418.143684 21534.337616 21636.774108 21597.648275 21421.768277 21169.679452 20794.807970 20297.377511 19788.755927 19351.917437 19034.130472 18860.425977 18766.647339 18712.335688 18699.794380 18666.857623 18561.514107 18379.318561 18104.514588 17795.271181 17513.339596 17258.078866 17073.286385 16926.180573 16769.431453 16672.494446 16633.819172 16609.803263 16595.209790 16526.393848 16372.549626 16134.757544 15776.891000 15252.865745 14674.097149 14336.692393 14332.091686 14313.202822 14197.166953 14077.914994 13937.439058 13772.729375 13624.573666 13493.252649 13397.833702 13341.598228 13294.302833 13241.443746 13205.369325 13178.681778 13150.529765 13128.438478 13128.099154 13127.370839 13054.409143 12901.223864 12750.156156 12670.401255 12650.607786 12651.195591 12622.292370 12550.723430 12413.434252 12230.859160 12128.955425 12124.068911 12150.301261 12175.065463 12177.449083 12172.224422 12148.513741 12105.136280 12062.311470 12027.323099 12005.604710 12008.829026 12019.241314 11999.592434 11947.819960 11887.313741 11820.205513 11773.596657 11779.931883 11805.616424 11805.036173 11801.820732 11781.261433 11716.099697 11658.567430 11681.631493 11801.717645 12004.669657 12329.741085 12759.974281 13220.077166 13580.206628 13744.724643 12479.136320 11546.267038 10421.412153 9611.027885 9099.272265 8700.792868 8229.239565 7581.215204 6869.157778 6262.254443 5754.159648 5259.497443 4848.566361 4421.608247 4011.716573 3601.198620 3392.842699 3177.371816 3178.818318 3172.451373 3277.955816 3450.882842 3438.871385 3305.483217 3097.247240 2848.655538 2584.971732 2324.598402 2079.272599 1855.503198 1655.982071 1480.783710 1328.320722 1196.093447 1081.250803 980.970206 892.683627 814.187252 743.671671 679.703197 621.179103 567.272233 517.374706 471.046182 427.969341 387.913397 350.705421 316.208659 284.306807 254.893120 227.863338 203.111493 180.527836 159.998244 141.404623 124.625915 109.539434 96.022333 83.953041 73.212601 63.685829 55.262287 47.837043 41.311230 35.592417 30.594809 26.239299 22.453401 19.171071 16.332461 13.883607 11.776072 9.966577 8.416601 7.091993 5.962584 5.001813 4.186368 3.495855 2.912478 2.420760 2.007267 1.660376 1.370053 1.127658 0.925769 0.758026 0.618992 0.504030 0.409192 0.331127 0.266996 0.214393 0.171288 0.135964 0.106966 0.083045 0.063083 0.045864 0.030374 0.022667 13352.795967 12845.224822 12001.836410 11018.938667 10230.864088 9639.311502 9105.340873 8548.932948 7933.099361 7308.722576 6727.661381 6188.848955 5692.465836 5259.820983 4830.660246 4431.148386 4090.617784 3853.789893 3666.686777 3584.704935 3540.513097 3542.302909 3538.850700 3467.151988 3315.827687 3101.486666 2850.097705 2585.056516 2323.983616 2078.316456 1854.414833 1654.887921 1479.761301 1327.411913 1195.314025 1080.599132 980.434416 892.246971 813.831725 743.380203 679.460813 620.973380 567.093323 517.215113 470.900427 427.833594 387.785118 350.583042 316.091318 284.194122 254.785024 227.759944 203.013003 180.434473 159.910208 141.322062 124.548914 109.468009 95.956433 83.892552 73.157353 63.635608 55.216845 47.796104 41.274502 35.559597 30.565591 26.213383 22.430493 19.150888 16.314736 13.868086 11.762522 9.954780 8.406357 7.083122 5.954921 4.995210 4.180693 3.490989 2.908316 2.417208 2.004243 1.657808 1.367878 1.125820 0.924220 0.756724 0.617901 0.503117 0.408432 0.330496 0.266473 0.213963 0.170937 0.135683 0.106755 0.082932 0.063179 0.046668 0.032957 0.024262 0.020695 13744.724643 13528.995773 12986.962852 12182.729243 11328.584985 10552.916067 9889.398140 9292.632025 8709.563371 8110.783520 7507.402268 6928.011082 6386.273997 5887.946042 5432.841175 5010.192768 4625.217193 4298.155364 4042.426686 3857.828372 3742.427901 3676.692897 3635.310740 3582.964696 3482.961437 3319.909966 3102.240436 2850.272580 2585.476727 2324.740843 2079.307303 1855.512078 1655.984669 1480.784525 1328.320977 1196.093525 1081.250827 980.970213 892.683628 814.187253 743.671671 679.703197 621.179103 567.272233 517.374706 471.046182 427.969341 387.913397 350.705421 316.208659 284.306807 254.893120 227.863338 203.111493 180.527836 159.998244 141.404623 124.625915 109.539434 96.022333 83.953041 73.212601 63.685829 55.262287 47.837043 41.311230 35.592417 30.594809 26.239299 22.453401 19.171071 16.332461 13.883607 11.776072 9.966577 8.416601 7.091993 5.962584 5.001813 4.186368 3.495855 2.912478 2.420760 2.007267 1.660376 1.370053 1.127658 0.925769 0.758026 0.618992 0.504030 0.409192 0.331128 0.266996 0.214394 0.171292 0.135976 0.107008 0.083183 0.063540 0.047421 0.034676 0.025573 0.020982 0.019636 0.022667 0.019182 0.014164 0.010735 0.008239 0.006339 0.004872 0.003735 0.002855 0.002175 0.001652 0.001250 0.000943 0.000708 0.000530 0.000396 0.000294 0.000218 0.000160 0.000118 0.000086 0.000063 0.000045 0.000033 0.000024 0.000017 0.000012 0.000008 0.000006 0.000004 0.000003 0.000002 0.000001 0.000001 0.000001 0.000000 0.000000 0.000000 0.000000 0.000000 0.000000 0.000000 0.000000 0.000000 0.000000 -0.000000 -0.000000 -0.000000 -0.000000 -0.000000 -0.000000 -0.000000 -0.000000 -0.000000 0.000000 0.000000 0.000000 0.000000 0.000000 0.000000 0.000000 0.000000 0.000000 0.000000 0.000000 0.000000 0.000000 0.000000 -0.000000 0.000000 0.000000 0.000000 0.000000 0.000000 0.000000 0.000000 0.000000 0.000000 0.000000 0.000000 0.000000 0.000000 -0.000000 0.000000 0.000000 0.000000 0.000000 0.000000 0.000000 0.000000 0.000000 0.000000 0.000000 0.000000 0.000000 0.000000 0.000000 0.000000 -0.000000 0.000000 0.000000 -0.000000 -0.000000 -0.000000 -0.000000 -0.000000 -0.000000 -0.000000 -0.000000 -0.000000 -0.000000 -0.000000 -0.000000 -0.000000 -0.000000 -0.000000 -0.000000 -0.000000 -0.000000 -0.000000 -0.000000 -0.000000 -0.000000 -0.000000 -0.000000 -0.000000 -0.000001 -0.000001 -0.000001 -0.000001 -0.000002 -0.000003 -0.000004 -0.000005 -0.000007 -0.000009 -0.000012 -0.000017 -0.000023 -0.000030 -0.000041 -0.000055 -0.000073 -0.000098 -0.000130 -0.000173 -0.000229 -0.000303 -0.000399 -0.000524 -0.000687 -0.000897 -0.001170 -0.001520 -0.001971 -0.002549 -0.003288 -0.004229 -0.005425 -0.006941 -0.008858 -0.011274 -0.014311 -0.018117 -0.022875 -0.028807 -0.036180 -0.045320 -0.056617 -0.070544 -0.087662 -0.108645 -0.134292 -0.165551 -0.203543 -0.249586 -0.305228 -0.372278 -0.452843 -0.549370 -0.664689 -0.802061 -0.965229 -1.158475 -1.386676 -1.655368 -1.970809 -2.340043 -2.770968 -3.272403 -3.854156 -4.527092 -5.303219 -6.195826 -7.219811 -8.392654 -9.737558 -11.293718 -13.160265 -15.515855 -17.006316 0.020695 0.019800 0.017099 0.013535 0.010543 0.008168 0.006306 0.004853 0.003722 0.002846 0.002168 0.001646 0.001246 0.000939 0.000706 0.000528 0.000394 0.000293 0.000217 0.000160 0.000117 0.000086 0.000062 0.000045 0.000033 0.000023 0.000017 0.000012 0.000008 0.000006 0.000004 0.000003 0.000002 0.000001 0.000001 0.000001 0.000000 0.000000 0.000000 0.000000 0.000000 0.000000 0.000000 0.000000 0.000000 0.000000 -0.000000 -0.000000 -0.000000 -0.000000 -0.000000 -0.000000 -0.000000 -0.000000 -0.000000 0.000000 0.000000 0.000000 0.000000 0.000000 0.000000 0.000000 0.000000 0.000000 0.000000 0.000000 0.000000 0.000000 0.000000 0.000000 -0.000000 0.000000 -0.000000 0.000000 0.000000 -0.000000 0.000000 0.000000 0.000000 -0.000000 -0.000000 0.000000 0.000000 -0.000000 -0.000000 0.000000 0.000000 0.000000 -0.000000 0.000000 0.000000 0.000000 0.000000 -0.000000 0.000000 0.000000 0.000000 0.000000 -0.000000 -0.000000 0.000000 0.000000 0.000000 -0.000000 -0.000000 -0.000000 -0.000000 -0.000000 -0.000000 -0.000000 -0.000000 -0.000000 -0.000000 -0.000000 -0.000000 -0.000000 -0.000000 -0.000000 -0.000000 -0.000000 -0.000000 -0.000000 -0.000000 -0.000000 -0.000000 -0.000000 -0.000000 -0.000001 -0.000001 -0.000001 -0.000001 -0.000002 -0.000003 -0.000004 -0.000005 -0.000007 -0.000009 -0.000012 -0.000017 -0.000022 -0.000030 -0.000041 -0.000055 -0.000073 -0.000098 -0.000130 -0.000172 -0.000228 -0.000302 -0.000398 -0.000522 -0.000684 -0.000895 -0.001166 -0.001516 -0.001966 -0.002542 -0.003279 -0.004217 -0.005411 -0.006923 -0.008836 -0.011246 -0.014276 -0.018074 -0.022822 -0.028741 -0.036100 -0.045222 -0.056498 -0.070399 -0.087487 -0.108434 -0.134038 -0.165246 -0.203178 -0.249151 -0.304710 -0.371664 -0.452118 -0.548517 -0.663688 -0.800889 -0.963862 -1.156886 -1.384835 -1.653242 -1.968362 -2.337236 -2.767758 -3.268744 -3.849991 -4.522347 -5.297761 -6.189340 -7.211387 -8.379425 -9.710096 -11.220268 -12.917388 -14.743056 -16.072093 -16.566294 0.019636 0.019456 0.018356 0.015961 0.013121 0.010424 0.008146 0.006311 0.004863 0.003733 0.002854 0.002175 0.001652 0.001250 0.000943 0.000708 0.000530 0.000396 0.000294 0.000218 0.000160 0.000118 0.000086 0.000063 0.000045 0.000033 0.000024 0.000017 0.000012 0.000008 0.000006 0.000004 0.000003 0.000002 0.000001 0.000001 0.000001 0.000000 0.000000 0.000000 0.000000 0.000000 0.000000 0.000000 0.000000 0.000000 0.000000 -0.000000 -0.000000 -0.000000 -0.000000 -0.000000 -0.000000 -0.000000 -0.000000 -0.000000 0.000000 0.000000 0.000000 0.000000 0.000000 0.000000 0.000000 0.000000 0.000000 0.000000 0.000000 0.000000 0.000000 0.000000 -0.000000 0.000000 0.000000 0.000000 0.000000 0.000000 0.000000 0.000000 0.000000 0.000000 0.000000 -0.000000 0.000000 0.000000 -0.000000 0.000000 0.000000 0.000000 0.000000 0.000000 0.000000 0.000000 0.000000 0.000000 -0.000000 0.000000 0.000000 0.000000 0.000000 -0.000000 -0.000000 0.000000 0.000000 0.000000 0.000000 -0.000000 -0.000000 -0.000000 -0.000000 -0.000000 -0.000000 -0.000000 -0.000000 -0.000000 -0.000000 -0.000000 -0.000000 -0.000000 -0.000000 -0.000000 -0.000000 -0.000000 -0.000000 -0.000000 -0.000000 -0.000000 -0.000000 -0.000000 -0.000001 -0.000001 -0.000001 -0.000001 -0.000002 -0.000003 -0.000004 -0.000005 -0.000007 -0.000009 -0.000012 -0.000017 -0.000023 -0.000030 -0.000041 -0.000055 -0.000073 -0.000098 -0.000130 -0.000173 -0.000229 -0.000303 -0.000399 -0.000524 -0.000687 -0.000897 -0.001170 -0.001520 -0.001971 -0.002549 -0.003288 -0.004229 -0.005425 -0.006941 -0.008858 -0.011274 -0.014311 -0.018117 -0.022875 -0.028807 -0.036180 -0.045320 -0.056617 -0.070544 -0.087662 -0.108645 -0.134292 -0.165551 -0.203543 -0.249586 -0.305228 -0.372278 -0.452843 -0.549370 -0.664689 -0.802061 -0.965229 -1.158475 -1.386676 -1.655368 -1.970809 -2.340042 -2.770965 -3.272394 -3.854125 -4.526991 -5.302889 -6.194746 -7.216282 -8.381116 -9.699820 -11.170579 -12.752163 -14.301062 -15.562766 -16.182892 -16.324693 -17.006316 -19.398894 -23.920793 -28.509376 -33.302042 -38.434096 -43.961568 -49.921469 -56.344041 -63.256225 -70.682369 -78.644084 -87.159853 -96.244557 -105.908971 -116.159272 -126.996561 -138.416408 -150.408439 -162.955980 -176.035748 -189.617629 -203.664524 -218.132290 -232.969758 -248.118853 -263.514774 -279.086264 -294.755922 -310.440570 -326.051642 -341.495589 -356.674278 -371.485413 -385.823048 -399.578432 -412.641625 -424.904617 -436.266728 -446.642586 -455.971282 -464.222185 -471.389472 -477.469665 -482.449133 -486.363411 -489.447069 -492.747838 -497.947637 -507.807255 -526.027881 -577.526073 -644.205517 -765.516632 -810.866435 -508.081243 -239.152487 -124.895194 -183.078711 -313.798036 -349.148507 -445.736039 -505.670779 -538.528637 -619.245756 -882.421063 -493.000531 294.519128 707.723165 724.212835 934.118187 928.834643 436.204936 -430.182337 -1373.164405 -1034.048397 -663.391819 -435.770185 -1901.231043 -2648.033158 -1519.278677 -8.265684 1047.936390 2119.935660 3482.628139 5544.281895 7267.070984 8488.902424 9674.259589 11220.173397 13683.935413 14821.389149 16056.527249 17355.511820 19209.703230 20883.442996 22170.940165 22463.389701 22110.282374 21504.238252 21053.019719 -16.566294 -17.655308 -20.274501 -24.205490 -28.574175 -33.308917 -38.422770 -43.943849 -49.900932 -56.321827 -63.232756 -70.657861 -78.618706 -87.133779 -96.217975 -105.882091 -116.132327 -126.969802 -138.390106 -150.382884 -162.931472 -176.012600 -189.596162 -203.645060 -218.115151 -232.955263 -248.107309 -263.506480 -279.081501 -294.754957 -310.443652 -326.059001 -341.507437 -356.690807 -371.506796 -385.849423 -399.609869 -412.678062 -424.945749 -436.311880 -446.690623 -456.020729 -464.271782 -471.439181 -477.520727 -482.496006 -486.387370 -489.421413 -492.458762 -497.464756 -507.294518 -524.844611 -555.754395 -601.107371 -653.760724 -646.474789 -456.668523 -190.488407 -140.312350 -262.781694 -328.644645 -393.244246 -490.579474 -562.920369 -611.730156 -650.338609 -686.961174 -537.235531 -29.040667 293.230015 253.294032 266.366617 195.449281 -321.302577 -967.213420 -1351.597135 -1348.765262 -908.179401 -493.784776 -685.136527 -840.553383 -151.427996 818.720865 1606.715500 2485.394744 3674.969438 5448.266034 7031.601629 8485.824434 9931.482977 11616.795359 13414.772850 14660.318743 16199.790747 17695.102187 18890.557272 20148.306553 21341.923878 21958.462027 21824.733393 21211.136441 20614.165474 20130.249796 -16.324693 -16.731721 -18.126915 -20.833708 -24.435343 -28.663333 -33.349303 -38.448547 -43.965989 -49.922822 -56.344454 -63.256352 -70.682408 -78.644096 -87.159857 -96.244558 -105.908971 -116.159272 -126.996561 -138.416408 -150.408439 -162.955980 -176.035748 -189.617629 -203.664524 -218.132290 -232.969758 -248.118853 -263.514774 -279.086264 -294.755922 -310.440570 -326.051642 -341.495589 -356.674278 -371.485413 -385.823048 -399.578432 -412.641625 -424.904617 -436.266732 -446.642604 -455.971354 -464.222487 -471.390416 -477.470726 -482.440405 -486.327742 -489.367775 -492.347335 -497.312477 -507.278956 -525.073878 -551.250293 -579.857928 -593.529115 -562.930727 -458.351464 -335.453778 -311.685954 -356.289293 -403.526169 -465.084422 -530.290046 -589.079808 -635.757766 -648.423667 -590.234149 -418.973467 -147.782933 57.181244 94.560464 13.507429 -212.719157 -626.945329 -1053.990376 -1304.662789 -1281.437029 -976.573266 -560.140824 -208.961451 130.563407 647.402659 1206.637844 1845.779854 2716.019052 3869.283981 5296.840717 6862.073933 8504.000203 10194.279208 11907.473429 13490.393595 14913.215293 16379.559807 17750.153428 18930.304155 20056.460228 21000.263035 21484.338038 21418.017827 20974.766423 20386.088504 19893.017183 19671.506108 15350.488001 6772.352007 11191.616083 9087.283842 8764.175169 6410.434103 14134.569884 10513.480347 11174.238254 10150.975548 14406.192085 9120.272427 10930.186174 17001.410208 17078.058436 15643.296244 18214.744116 22279.385955 21715.736165 21362.169868 8576.387178 2899.811004 8879.565326 10947.334475 9946.120442 12897.745048 8008.469298 9874.442383 11232.683212 15773.869224 10115.135077 16698.848484 16280.164208 13489.985691 12283.524240 22575.873690 17948.341999 20749.777150 21968.174586 21292.578460 13221.080791 10743.818595 6207.408554 9245.256959 7075.987913 13042.325510 10896.436757 11365.760450 13348.582448 11386.319713 11398.886454 15088.361841 11516.624464 20031.095722 16919.684724 21546.049157 21563.978413 20508.679053 21331.756009 21740.784419 10894.424288 13891.193291 -17459.005495 10218.099665 18313.409396 10424.428176 10052.992592 11776.215593 12718.385015 18670.863638 22612.739150 10796.997178 11584.314768 16429.825782 16166.728033 20934.043978 17637.059515 22282.469499 21235.400312 21474.170535 11229.287211 13818.754333 14705.732743 15960.739178 12914.104050 15223.879397 -45615.582759 -36809.252057 13881.671993 12031.127123 20607.792627 13384.284695 12445.810161 15427.101518 12848.680917 20659.378355 14336.953446 11074.524444 21449.657914 21696.077870 11336.986177 19664.344159 10233.978251 12546.590596 13444.276422 25966.186026 8126.217758 12912.866510 16499.803270 17193.887327 11379.574076 11083.357834 21389.002520 14276.454005 11979.628944 21137.957553 17980.315624 15839.461134 17954.171515 18545.883613 12440.468947 13243.990501 9686.264462 10972.930722 17285.971031 -13589.311942 10186.787742 13813.778872 -14541.380062 15132.717261 20390.149181 12088.062609 10558.231642 18958.260076 14444.770733 14738.333965 17415.995139 20911.234460 17795.356698 20502.132409 -14859.843501 12538.951237 -29076.995940 8172.337513 8665.722655 17064.640546 -8434.131349 11948.553601 14275.138497 15553.026531 12605.965555 11127.776003 16828.516589 13608.994992 15213.609042 14582.277953 10341.214553 13275.459927 9771.950758 19780.038115 8497.906835 10922.640749 8776.556429 12819.191618 -45487.350156 10911.756491 10678.739284 12449.264331 13867.236205 11144.120795 -9087.687663 15494.601874 15383.663279 9884.740063 16826.835926 13308.784614 12356.056278 15124.725849 15968.863067 22028.088414 17217.049348 12907.274279 7695.544619 14778.646746 15520.736063 -46220.644875 2941.163661 12785.646952 7625.530642 8917.754324 -42629.206667 -38438.425066 12625.949360 -44325.940471 8886.330208 11438.549551 19751.418293 11981.335513 11640.863243 11219.758506 24971.896514 14459.211594 -33609.067762 9698.423379 10108.421183 9205.015026 12391.734720 8885.093581 -25652.762680 11591.652991 10994.763082 8815.540247 16762.014270 13856.877228 9376.389486 6460.089030 20055.633424 14343.163118 14501.031986 12460.381686 10911.036771 -46286.693530 -45175.773446 13215.329366 11312.709592 8967.434949 8247.244940 11127.903775 12255.499658 13908.350477 9612.971081 -41511.113193 9713.301330 9159.047038 10793.948485 12741.787725 17742.587963 12130.555731 11813.527026 7237.466226 -41702.252292 14222.563522 7817.303841 11497.870206 9837.955394 -16178.242972 8743.828174 9649.905832 9788.757057 10149.166063 8044.112962 11141.667296 10018.277536 7841.076638 17471.447317 9441.380877 -28510.072266 15518.650514 17229.388941 16332.826423 7934.971293 9882.995599 10526.400747 8934.182225 12767.072410 12635.248026 9478.670038 12736.898309 8552.916149 7991.325993 13383.236293 8444.653677 9116.459753 17166.972417 8509.982170 13273.336778 15798.314883 18337.990228 -6687.928456 11450.159200 7702.851146 9827.065039 8781.685505 12952.180073 10357.031597 8600.392700 13198.331192 11650.185995 10285.934433 8571.051847 12087.257318 13399.449243 11011.599589 12486.231835 10232.690231 15617.970375 15256.754459 15686.355856 13646.721588 18389.856483 8819.176141 11759.869005 11343.814871 -40136.056692 9022.928296 10422.237188 11561.455616 10079.467365 10419.840930 10065.264098 11220.833170 11962.366880 -42363.446640 9833.507673 14993.440730 14001.422126 17380.204855 10101.988521 9872.287979 16807.283133 9374.172157 14550.727678 16685.706326 12096.334869 10217.236299 -42716.017174 11400.824860 10146.482766 13019.269967 11406.432304 18401.921308 13154.591830 12986.655513 15525.140564 13910.909643 17790.037790 15264.525947 30421.986133 4898.308049 -28157.199839 11880.908696 8550.680838 7336.091519 8393.148640 8821.259017 10270.206037 14388.859049 15197.959972 15586.856985 12247.998014 9541.351967 16971.046046 9793.188648 15838.031917 12604.115652 17443.068181 14946.562751 15594.626036 16043.137988 -35668.300844 13216.972632 13079.750698 8208.029837 12454.546347 13614.571088 17687.832939 16430.741390 15878.162265 12551.886896 10709.753080 12600.552158 15701.708047 11971.145153 15648.587599 12079.976411 12498.605450 15031.877694 18808.884880 15208.872290 13983.198631 13068.608628 9545.725525 10962.172953 12196.223966 12269.120800 10261.537552 13390.371941 9552.485540 8751.280446 13273.013415 16933.331837 15089.271636 13784.223428 13407.970689 16358.718094 14029.929289 14546.345542 8949.312301 -24053.040357 17195.840838 11061.470180 10836.734873 11911.402830 11882.461002 9571.148020 11291.009034 15158.880584 13857.991959 11414.248610 10479.423016 16483.727078 12193.215378 14838.197228 12204.230677 15057.374268 14212.054344 17833.301824 17862.539858 14981.206465 8865.520073 13806.242939 11141.976438 12724.222467 7452.297484 8678.080928 11140.829076 12617.132730 11269.715044 13831.319181 10973.947055 14390.946796 14372.181386 11453.849210 16142.536117 12621.783348 18056.994969 17967.647724 13038.272687 12371.533371 14761.793626 14140.024970 7323.306693 7920.973732 8389.589229 10537.319610 7608.016276 8960.779002 12131.826259 7716.718863 9361.548247 15496.681697 12335.563401 14001.877959 16805.462321 15726.891039 15881.194022 15981.181878 18015.613415 13029.084526 17636.219030 12725.633630 9054.655165 12056.988613 6749.423759 8578.737469 5960.521487 12142.042482 14852.891519 14467.070843 9941.598692 11523.960014 10602.878923 17389.179681 12513.481459 16799.499713 14934.695143 13526.328292 17999.581313 15246.980057 15140.424847 9702.607573 13981.130007 8902.807867 9463.115630 13140.465130 9950.898573 14664.696060 10671.859973 12442.773949 12820.602410 14481.599919 13098.719390 16777.715881 17689.106245 16688.053945 16196.338096 14838.054500 15411.496373 13129.254523 16520.258460 8797.393810 16061.988684 14699.857904 12287.955270 14011.361018 13223.707386 11206.092710 15632.563107 10451.487720 15118.297713 15583.807357 16010.790123 17587.778920 16321.488965 15016.388976 13724.282995 16571.832660 12778.713591 17857.971111 16895.872406 17000.371237 15143.808126 8222.347224 11833.032334 6686.719317 15420.115053 13121.257355 12839.375109 16838.353900 16665.421573 17313.196218 17763.032880 15334.490442 16827.623851 13943.618750 18202.523908 19218.903718 15080.091253 12416.888459 14809.275021 9636.633603 7158.534884 12303.864600 7891.491906 6901.381110 7558.241942 13559.626430 15772.556017 15956.135489 17404.386336 15934.230793 15302.354036 14261.525386 16079.193346 16436.277618 16485.386309 18021.664196 16695.920046 16571.852745 14314.071992 6658.896187 8363.325816 5514.825146 13176.612571 13722.654866 14234.725954 11703.270457 11124.029297 9798.713690 18573.362117 12996.930729 14071.909867 19196.459618 19200.578828 18100.954504 17726.565525 16961.794888 18202.818978 18434.919544 13680.764443 988.204816 7492.467243 4297.952339 7824.492831 9683.022132 12303.260185 8297.089998 11540.667353 10812.998719 14578.749504 12117.167679 17270.701235 12297.311996 15484.792001 16909.237195 19128.076653 16171.221990 16665.060717 15242.999439 15789.133442 466.914687 2364.105186 3169.810209 6268.989042 3307.252888 8762.790157 10157.288789 11161.177336 9473.334682 13356.775201 12830.209977 10920.106149 15371.723159 14631.576159 17601.762765 18726.039938 15766.497176 16261.697651 14060.361414 15657.632563 1051.687909 1482.608404 1420.911061 1937.841431 8417.988401 5488.610907 10812.967570 6919.861128 9886.817735 8962.080975 9496.081645 8807.578029 11881.911778 17919.145473 15605.232329 17103.038056 16084.360647 17682.360802 11912.265830 17615.233642 984.192853 1106.418200 3978.993032 2336.665090 3431.848098 8973.716083 6616.534418 7461.833259 9917.590113 11369.605191 9431.238603 12317.740408 19400.432254 13654.702541 15443.560563 18676.004842 17594.811736 15285.218251 17660.271384 14573.937022 1150.216653 1406.651194 2829.514010 1427.344404 4025.948528 8049.241744 5552.739169 9291.206733 10523.300300 8550.544982 10649.901552 12126.212091 9891.252152 11989.374291 16840.623452 16052.054732 16450.682172 17768.987091 17398.579906 16886.782052 -84.810598 1102.346845 2161.726750 1873.612243 4900.521676 6047.691503 6585.070423 6981.831069 11473.320582 10919.899862 13151.531037 14438.152609 10906.738867 17539.050673 18964.471725 19297.554921 17082.446072 18632.135387 15939.456392 14984.071000 1610.177577 241.486111 2380.134680 3120.786431 5444.890630 3521.942187 4554.220716 5