<VTKFile type="PolyData">
<PolyData>
<Piece NumberOfPoints="6715" NumberOfVerts="6715" NumberOfLines="0" NumberOfStrips="0" NumberOfPolys="0">
<PointData>
<DataArray type="Float64" Name="Pressure" format="ascii">
 25979.479121 26989.323116 28075.299382 28753.178462 29037.263801 28846.430607 28010.076324 26727.148891 25010.794259 23267.218301 22041.058744 22026.978805 24238.306986 28283.121265 28382.801863 28053.552865 29783.167388 29430.482332 33836.889205 35204.956033 24228.553697 17753.317675 16541.975355 18538.746757 19707.101867 19570.300784 19304.141486 19600.450154 20181.708044 20727.674329 21236.007267 21667.364257 21855.436146 21645.528883 21166.509925 20622.100983 20133.109840 19597.898445 19162.025132 18967.630754 18938.255267 18980.350600 19034.218181 18934.619179 18569.954509 18048.620988 17633.997036 17313.595789 17162.089392 17171.615349 17228.961101 17240.959975 17122.331289 17022.843935 17017.740099 17202.920651 17573.140229 17982.039149 18192.991429 18115.357939 17741.701718 17176.264026 16593.000188 16144.511053 16006.822360 16141.824108 16261.213964 16258.907719 16248.017482 16244.647189 16198.218830 16044.477618 15797.660481 15593.537273 15520.295239 15463.850929 15274.757530 14910.590354 14488.386228 14205.282813 14116.886377 14220.384584 14480.568922 14898.362915 15240.612499 15549.421590 15715.201075 15817.297515 16038.561811 16513.474762 16979.868247 17278.676459 17324.869547 17199.030916 17031.645376 16881.577785 16798.346821 16675.407786 16518.184806 16357.613904 16215.489752 16134.691002 16074.643087 16017.688706 15936.642672 15861.735123 15769.076012 15693.112212 15601.628236 15496.813951 15429.623995 15431.992490 15459.815404 15475.092100 15480.890705 15480.280460 15470.400293 15443.522649 15418.314392 15389.294594 15358.303876 15304.548520 15230.999074 15117.210361 14990.235751 14885.801705 14831.665858 14826.782638 14825.296667 14791.010370 14706.443957 14563.353082 14415.006388 14327.025138 14319.181459 14357.039913 14367.081585 14331.940203 14215.876715 14045.568700 13829.006357 13575.781263 13305.814477 13081.331328 12934.609686 12848.367721 12779.854071 12706.178526 12614.727380 12527.069242 12477.305124 12439.047979 12394.124496 12350.890612 12279.369563 12167.369720 12053.794538 11969.932132 11934.752131 11891.846446 11818.868326 11703.047014 11529.179736 11355.196643 11227.518208 11141.711022 11062.136175 10961.220247 10807.371698 10640.869678 10496.772543 10387.173334 10302.968787 10194.591964 10092.596231 10018.531648 9985.874314 9977.498506 9972.771833 9975.048358 9970.727203 9964.914588 9966.029108 9966.056563 9974.889713 9990.270676 10006.361477 10025.197507 10043.576039 10059.203099 10068.237756 10069.257692 10065.274556 10062.213600 10046.280743 10031.098873 10026.401313 10064.180556 10133.143116 10232.707144 10319.635460 24502.194676 25323.635285 26365.998071 27360.298120 28030.636846 28309.377746 28164.295121 27616.801638 26711.405224 25573.421821 24523.879738 23966.930734 24291.116049 25528.750628 26481.010103 25236.685935 23245.810957 21340.122117 20472.300348 20882.604889 20658.437830 19615.485074 19405.462969 20436.529483 21642.010916 21686.370951 20868.279719 20212.491396 20162.657343 20555.206919 21061.562692 21567.188808 22009.709615 22237.658914 22115.135642 21667.499434 21091.755584 20513.977131 19942.656686 19426.875282 19071.772196 18909.608002 18890.306081 18904.958018 18823.840583 18544.360065 18129.623594 17755.963600 17450.798679 17258.068922 17195.043730 17209.277007 17208.294510 17154.655356 17111.773704 17172.749817 17374.399169 17688.847344 17995.087189 18151.983048 18075.818203 17743.329920 17235.104208 16695.035265 16301.210750 16196.978515 16325.408012 16491.229198 16548.637390 16490.859091 16360.769453 16163.568971 15887.900870 15577.823455 15333.670437 15221.929325 15139.867511 14948.590958 14640.347631 14342.493230 14179.878653 14188.236703 14334.183697 14592.043313 14916.281248 15232.572875 15511.370525 15714.978763 15891.546549 16167.449138 16591.287575 17018.359034 17267.281001 17272.985635 17134.882024 16961.017674 16817.322056 16697.366577 16553.917806 16371.225091 16171.552658 16002.626366 15899.693868 15834.324328 15766.945118 15681.905264 15576.576003 15483.783121 15402.212213 15334.648639 15295.486639 15291.956780 15322.460350 15356.340842 15378.003976 15385.400190 15387.234302 15383.343480 15361.399522 15316.660188 15258.182695 15212.053560 15172.599915 15109.135066 15002.659496 14876.435811 14767.029171 14697.089025 14678.839334 14689.452878 14653.995959 14555.074268 14435.485809 14320.635279 14240.522775 14192.389620 14164.705539 14138.986206 14085.404989 13977.428849 13823.498469 13633.535086 13409.481225 13175.371232 12971.097398 12815.668660 12707.201804 12619.706789 12534.687078 12453.708880 12394.465855 12356.821063 12319.712676 12269.342826 12205.372921 12118.637838 12014.520376 11930.215573 11887.854379 11872.204822 11858.967544 11812.006068 11700.706150 11533.297725 11358.614171 11219.458807 11120.242320 11030.465956 10917.350936 10771.775395 10619.252128 10495.640839 10402.776286 10308.623849 10199.117263 10089.643825 10008.851468 9970.656961 9958.706148 9956.726254 9955.126627 9950.158916 9947.836251 9956.439149 9974.241662 9995.347107 10020.052537 10047.535478 10081.175575 10118.269698 10151.715108 10173.505480 10185.152539 10186.525652 10184.497025 10180.012928 10185.485947 10211.551162 10257.507669 10321.516103 10398.275349 10462.715428 10511.415913 23788.143429 24157.061489 24978.352353 26011.736015 26924.776037 27563.402875 27853.777642 27772.072370 27341.447524 26643.772606 25857.611277 25242.193268 25112.418930 25672.170722 26647.962912 26984.080124 25624.456433 23154.677988 20651.954384 18894.774018 18376.959197 18713.601709 19575.662018 21034.433462 22603.527177 23254.375799 22646.406364 21461.448428 20607.284441 20420.150806 20708.164667 21177.003563 21673.755257 22102.140955 22330.700046 22242.511696 21859.383317 21307.648999 20698.021478 20087.668201 19533.915553 19117.903382 18882.017024 18802.245202 18783.107814 18698.053522 18465.730612 18119.023110 17755.223480 17458.165095 17267.057776 17184.796463 17172.763032 17166.184340 17142.034313 17140.392195 17224.596824 17421.511811 17695.724250 17952.565465 18079.465546 17999.583027 17692.915521 17221.402105 16727.482136 16380.640906 16287.316816 16398.833650 16555.467150 16619.627055 16551.562824 16374.792570 16110.252463 15781.504336 15450.198677 15199.913568 15055.382566 14939.079564 14754.085795 14496.388578 14264.271078 14154.871710 14196.309408 14361.769620 14612.609084 14907.997838 15206.258291 15470.618570 15690.569528 15912.038071 16216.827181 16613.927816 16990.775250 17204.039839 17208.057963 17070.728067 16895.926336 16745.106511 16609.073181 16452.125322 16258.568063 16056.029471 15885.262205 15769.331636 15692.217687 15618.372813 15526.031872 15418.616266 15321.512071 15244.998243 15195.894310 15179.086143 15197.363350 15238.436548 15282.295832 15311.504257 15324.261456 15326.747473 15318.735653 15293.363983 15246.521314 15189.327719 15136.927521 15086.870205 15017.389995 14915.907462 14795.230449 14681.969252 14606.830805 14575.980559 14568.468538 14531.055222 14449.013449 14347.937092 14248.110930 14166.568182 14102.951929 14052.120687 14002.534988 13933.802766 13829.829521 13686.534912 13506.377814 13299.177761 13086.155998 12892.935786 12737.853317 12619.966326 12523.080197 12437.158936 12364.260414 12312.073120 12275.712670 12238.474767 12186.842744 12116.438565 12029.291500 11938.200045 11867.806585 11832.803348 11824.295541 11814.331966 11767.320584 11660.726293 11503.665058 11336.942738 11196.565301 11088.879267 10991.263343 10876.264946 10737.978236 10598.721126 10481.991033 10386.117801 10290.726145 10183.039786 10075.655590 9993.799153 9948.709491 9931.348832 9925.485162 9920.607051 9916.019011 9917.228218 9929.548852 9953.166566 9981.854692 10012.879297 10047.390906 10087.338289 10130.320806 10169.826270 10198.591701 10215.002543 10222.332816 10224.969179 10229.090122 10243.348449 10276.291789 10328.906768 10395.615958 10464.857463 10525.877839 10571.649044 10593.841000 10319.635460 10017.275914 9492.932390 8893.064626 8291.127699 7702.296080 7144.349367 6599.160130 6063.615306 5549.100800 5080.471730 4574.045433 4099.814215 3642.229014 3195.064911 2767.426541 2483.175134 2250.006329 2120.267626 2015.031503 1986.974814 1976.624089 1940.535148 1888.225213 1823.733342 1747.989143 1661.202556 1564.423166 1459.608883 1349.332817 1236.367678 1123.358752 1012.636193 906.124862 805.316836 711.282213 624.702327 545.915770 474.971321 411.683739 355.689201 306.497714 263.540307 226.209459 193.891904 165.993631 141.957460 121.274037 103.487319 88.195762 75.050390 63.750809 54.040078 45.699131 38.541266 32.407040 27.159750 22.681592 18.870476 15.637458 12.904699 10.603851 8.674793 7.064626 5.726853 4.620706 3.710564 2.965434 2.358488 1.866628 1.470089 1.152055 0.898313 0.696927 0.537933 0.413070 0.315533 0.239747 0.181180 0.136165 0.101757 0.075603 0.055835 0.040982 0.029887 0.021649 0.015572 0.011117 0.007873 0.005529 0.003847 0.002649 0.001804 0.001212 0.000803 0.000521 0.000330 0.000200 0.000109 0.000043 0.000014 10511.415913 10351.643443 10014.635930 9516.129716 8952.271034 8363.052287 7775.490225 7209.281166 6663.946178 6138.913683 5635.867241 5153.684903 4673.713349 4201.235463 3733.708845 3290.260648 2892.801542 2589.483854 2363.326772 2212.529562 2104.667634 2039.392442 1993.111002 1945.535635 1889.941075 1824.572014 1748.572321 1661.688462 1564.810460 1459.872175 1349.465958 1236.378173 1123.261694 1012.450352 905.870078 805.012407 710.945935 624.349928 545.560587 474.624153 411.352845 355.380430 306.214736 263.284924 225.981955 193.691410 165.818465 141.805437 121.142720 103.374219 88.098484 74.966721 63.678774 53.977959 45.645462 38.494815 32.366779 27.124826 22.651295 18.844214 15.614730 12.885075 10.586959 8.660306 7.052253 5.716334 4.611808 3.703076 2.959166 2.353269 1.862308 1.466532 1.149143 0.895944 0.695009 0.536390 0.411836 0.314550 0.238970 0.180568 0.135687 0.101385 0.075315 0.055614 0.040813 0.029758 0.021552 0.015499 0.011062 0.007833 0.005499 0.003825 0.002633 0.001792 0.001204 0.000797 0.000517 0.000327 0.000199 0.000111 0.000051 0.000018 0.000005 10593.841000 10531.636226 10339.208126 9985.081503 9517.499613 8973.851427 8395.281794 7812.932661 7245.372040 6700.069323 6177.410126 5675.906795 5191.121580 4714.293401 4242.243903 3778.586293 3339.363959 2953.003758 2645.167432 2417.356503 2255.931783 2142.767652 2063.720343 2003.871044 1949.126800 1890.692199 1824.410997 1748.131790 1661.228639 1564.433146 1459.612940 1349.334238 1236.368171 1123.358930 1012.636257 906.124885 805.316844 711.282216 624.702328 545.915770 474.971321 411.683739 355.689201 306.497714 263.540307 226.209459 193.891904 165.993631 141.957460 121.274037 103.487319 88.195762 75.050390 63.750809 54.040078 45.699131 38.541266 32.407040 27.159750 22.681592 18.870476 15.637458 12.904699 10.603851 8.674793 7.064626 5.726853 4.620706 3.710564 2.965434 2.358488 1.866628 1.470089 1.152055 0.898313 0.696927 0.537933 0.413070 0.315533 0.239747 0.181180 0.136165 0.101757 0.075603 0.055835 0.040982 0.029887 0.021649 0.015572 0.011117 0.007873 0.005529 0.003847 0.002649 0.001804 0.001212 0.000803 0.000521 0.000330 0.000201 0.000114 0.000057 0.000022 0.000005 0.000001 0.000014 0.000007 -0.000002 -0.000005 -0.000006 -0.000006 -0.000005 -0.000004 -0.000004 -0.000003 -0.000002 -0.000002 -0.000001 -0.000001 -0.000001 -0.000001 -0.000000 -0.000000 -0.000000 -0.000000 -0.000000 -0.000000 -0.000000 -0.000000 -0.000000 -0.000000 -0.000000 -0.000000 -0.000000 -0.000000 -0.000000 -0.000000 -0.000000 -0.000000 -0.000000 -0.000000 -0.000000 0.000000 0.000000 0.000000 -0.000000 -0.000000 0.000000 -0.000000 0.000000 0.000000 0.000000 0.000000 0.000000 0.000000 0.000000 0.000000 0.000000 0.000000 0.000000 0.000000 0.000000 0.000000 0.000000 0.000000 0.000000 0.000000 0.000000 0.000000 0.000000 0.000000 0.000000 0.000000 -0.000000 0.000000 0.000000 0.000000 0.000000 0.000000 0.000000 0.000000 0.000000 0.000000 0.000000 0.000000 0.000000 0.000000 -0.000000 0.000000 0.000000 0.000000 0.000000 0.000000 0.000000 0.000000 0.000000 0.000000 0.000000 0.000000 0.000000 0.000000 0.000000 0.000000 -0.000000 0.000000 0.000000 -0.000000 0.000000 0.000000 0.000000 0.000000 -0.000000 -0.000000 -0.000000 -0.000000 -0.000000 -0.000000 -0.000000 -0.000000 -0.000000 -0.000000 -0.000000 -0.000000 -0.000000 -0.000000 -0.000000 -0.000000 -0.000000 -0.000000 -0.000000 -0.000000 -0.000000 -0.000000 -0.000000 0.000000 -0.000000 -0.000000 -0.000000 -0.000000 -0.000000 -0.000000 -0.000000 -0.000000 -0.000000 -0.000000 -0.000000 -0.000000 -0.000000 -0.000000 -0.000000 -0.000000 -0.000000 -0.000000 -0.000000 -0.000001 -0.000001 -0.000001 -0.000002 -0.000003 -0.000004 -0.000006 -0.000008 -0.000012 -0.000018 -0.000026 -0.000037 -0.000053 -0.000076 -0.000109 -0.000155 -0.000219 -0.000309 -0.000434 -0.000607 -0.000846 -0.001174 -0.001622 -0.002233 -0.003061 -0.004181 -0.005688 -0.007708 -0.010404 -0.013987 -0.018731 -0.024984 -0.033195 -0.043931 -0.057911 -0.076038 -0.099448 -0.129553 -0.168107 -0.217275 -0.279719 -0.358691 -0.458151 -0.582897 -0.738743 -0.932767 -1.173798 -1.473642 -1.850713 -2.344633 -3.029911 -3.490367 0.000005 0.000005 0.000001 -0.000003 -0.000005 -0.000006 -0.000006 -0.000005 -0.000004 -0.000004 -0.000003 -0.000002 -0.000002 -0.000001 -0.000001 -0.000001 -0.000001 -0.000000 -0.000000 -0.000000 -0.000000 -0.000000 -0.000000 -0.000000 -0.000000 -0.000000 -0.000000 -0.000000 -0.000000 -0.000000 -0.000000 -0.000000 -0.000000 -0.000000 -0.000000 -0.000000 -0.000000 0.000000 0.000000 -0.000000 0.000000 0.000000 0.000000 0.000000 -0.000000 0.000000 0.000000 0.000000 0.000000 0.000000 0.000000 0.000000 0.000000 0.000000 0.000000 0.000000 0.000000 0.000000 0.000000 0.000000 0.000000 0.000000 0.000000 0.000000 0.000000 0.000000 0.000000 0.000000 0.000000 0.000000 -0.000000 0.000000 -0.000000 0.000000 0.000000 -0.000000 0.000000 0.000000 0.000000 -0.000000 -0.000000 0.000000 0.000000 -0.000000 -0.000000 0.000000 0.000000 0.000000 -0.000000 0.000000 0.000000 0.000000 0.000000 -0.000000 0.000000 0.000000 0.000000 0.000000 -0.000000 -0.000000 0.000000 0.000000 0.000000 -0.000000 0.000000 0.000000 0.000000 0.000000 -0.000000 -0.000000 -0.000000 -0.000000 -0.000000 -0.000000 -0.000000 -0.000000 -0.000000 -0.000000 -0.000000 -0.000000 -0.000000 -0.000000 -0.000000 -0.000000 -0.000000 -0.000000 -0.000000 -0.000000 0.000000 -0.000000 -0.000000 -0.000000 -0.000000 -0.000000 -0.000000 -0.000000 -0.000000 -0.000000 -0.000000 -0.000000 -0.000000 -0.000000 -0.000000 -0.000000 -0.000000 -0.000000 -0.000000 -0.000000 -0.000000 -0.000000 -0.000001 -0.000001 -0.000001 -0.000002 -0.000003 -0.000004 -0.000006 -0.000008 -0.000012 -0.000018 -0.000026 -0.000037 -0.000053 -0.000076 -0.000109 -0.000154 -0.000218 -0.000308 -0.000432 -0.000604 -0.000842 -0.001168 -0.001615 -0.002223 -0.003048 -0.004164 -0.005665 -0.007678 -0.010364 -0.013935 -0.018663 -0.024896 -0.033081 -0.043785 -0.057723 -0.075800 -0.099146 -0.129171 -0.167627 -0.216675 -0.278971 -0.357760 -0.456992 -0.581441 -0.736855 -0.930114 -1.169401 -1.464364 -1.826028 -2.263928 -2.767231 -3.143460 -3.273998 0.000001 0.000001 0.000001 -0.000002 -0.000004 -0.000005 -0.000006 -0.000006 -0.000005 -0.000004 -0.000004 -0.000003 -0.000002 -0.000002 -0.000001 -0.000001 -0.000001 -0.000001 -0.000000 -0.000000 -0.000000 -0.000000 -0.000000 -0.000000 -0.000000 -0.000000 -0.000000 -0.000000 -0.000000 -0.000000 -0.000000 -0.000000 -0.000000 -0.000000 -0.000000 -0.000000 -0.000000 0.000000 0.000000 0.000000 0.000000 0.000000 0.000000 0.000000 0.000000 0.000000 0.000000 0.000000 0.000000 0.000000 0.000000 0.000000 0.000000 0.000000 0.000000 0.000000 0.000000 0.000000 0.000000 0.000000 0.000000 0.000000 0.000000 0.000000 0.000000 0.000000 0.000000 0.000000 0.000000 0.000000 -0.000000 0.000000 0.000000 0.000000 0.000000 0.000000 0.000000 0.000000 0.000000 0.000000 0.000000 -0.000000 0.000000 0.000000 -0.000000 0.000000 0.000000 0.000000 0.000000 0.000000 0.000000 0.000000 0.000000 0.000000 -0.000000 0.000000 0.000000 0.000000 0.000000 -0.000000 -0.000000 0.000000 0.000000 0.000000 0.000000 0.000000 0.000000 0.000000 -0.000000 -0.000000 -0.000000 -0.000000 -0.000000 -0.000000 -0.000000 -0.000000 -0.000000 -0.000000 -0.000000 -0.000000 -0.000000 -0.000000 -0.000000 -0.000000 -0.000000 -0.000000 -0.000000 -0.000000 0.000000 0.000000 0.000000 -0.000000 -0.000000 -0.000000 -0.000000 -0.000000 -0.000000 -0.000000 -0.000000 -0.000000 -0.000000 -0.000000 -0.000000 -0.000000 -0.000000 -0.000000 -0.000000 -0.000000 -0.000000 -0.000000 -0.000000 -0.000001 -0.000001 -0.000001 -0.000002 -0.000003 -0.000004 -0.000006 -0.000008 -0.000012 -0.000018 -0.000026 -0.000037 -0.000053 -0.000076 -0.000109 -0.000155 -0.000219 -0.000309 -0.000434 -0.000607 -0.000846 -0.001174 -0.001622 -0.002233 -0.003061 -0.004181 -0.005688 -0.007708 -0.010404 -0.013987 -0.018731 -0.024984 -0.033195 -0.043931 -0.057911 -0.076038 -0.099448 -0.129553 -0.168106 -0.217275 -0.279716 -0.358682 -0.458119 -0.582793 -0.738402 -0.931642 -1.170088 -1.461407 -1.810454 -2.210383 -2.621267 -2.963780 -3.125667 -3.156356 -3.490367 -4.403299 -6.191166 -8.100033 -10.207987 -12.602339 -15.344090 -18.490834 -22.101269 -26.236362 -30.959341 -36.335247 -42.430209 -49.310520 -57.041523 -65.686325 -75.304353 -85.949778 -97.669840 -110.503114 -124.477773 -139.609888 -155.901827 -173.340799 -191.897579 -211.525442 -232.159306 -253.715080 -276.089175 -299.158168 -322.778590 -346.786900 -370.999785 -395.215074 -419.213748 -442.763692 -465.626017 -487.564707 -508.360064 -527.825506 -545.825585 -562.290290 -577.216824 -590.646031 -602.593051 -612.901557 -621.138057 -626.675746 -628.399922 -625.823932 -616.278348 -602.464278 -589.958552 -585.562184 -593.345167 -616.296953 -623.025612 -617.470183 -626.355361 -666.620494 -752.395928 -786.175108 -742.777801 -670.410423 -697.413031 -828.726392 -1013.998250 -1253.505591 -1266.426599 -1144.910670 -1167.812091 -1587.181283 -2011.232548 -2151.765117 -2092.577399 -1723.402804 -1040.038283 -95.333338 881.452363 2145.118161 3513.527441 4704.352933 5958.039144 7362.665326 8552.795580 9765.435174 11006.784911 12575.390762 14137.199493 15776.386197 17899.105962 19623.375361 21237.794646 22703.216355 23933.634706 25158.230789 26144.547299 26790.314686 26891.123361 26554.448277 25979.479121 -3.273998 -3.697347 -4.718543 -6.291892 -8.117851 -10.203007 -12.588923 -15.326360 -18.469912 -22.077404 -26.209554 -30.929538 -36.302406 -42.394322 -49.271627 -56.999723 -65.641782 -75.257304 -85.900536 -97.618796 -110.450740 -124.424620 -139.556580 -155.849055 -173.289314 -191.848181 -211.478969 -232.116629 -253.677091 -276.056786 -299.132299 -322.760165 -346.776836 -370.998960 -395.224285 -419.233626 -442.794593 -465.667857 -487.616787 -508.420898 -527.892737 -545.896124 -562.360868 -577.285220 -590.713467 -602.671285 -613.027489 -621.335226 -626.940286 -628.982626 -626.511499 -618.476266 -604.920832 -590.893118 -582.278651 -584.116368 -595.600038 -606.724155 -614.149847 -639.056106 -694.840496 -756.725200 -781.505248 -758.825992 -728.990340 -777.726105 -943.833525 -1184.246496 -1411.811482 -1516.532705 -1543.539800 -1620.696976 -1821.522355 -2038.870478 -2142.870231 -2065.325035 -1740.512546 -1111.725339 -171.711749 1012.048664 2270.096505 3472.986776 4654.017767 5852.032597 7100.872580 8281.512037 9453.710277 10661.184631 12066.453735 13627.045546 15279.096544 17164.353879 18832.472943 20393.640542 21873.753428 23165.470576 24337.682211 25295.276345 25895.117784 25978.436624 25684.376564 25127.127908 24502.194676 -3.156356 -3.316369 -3.860247 -4.924950 -6.379658 -8.155887 -10.225008 -12.607503 -15.345658 -18.491310 -22.101414 -26.236405 -30.959354 -36.335251 -42.430210 -49.310520 -57.041523 -65.686325 -75.304353 -85.949778 -97.669840 -110.503114 -124.477773 -139.609888 -155.901827 -173.340799 -191.897579 -211.525442 -232.159306 -253.715080 -276.089175 -299.158168 -322.778590 -346.786900 -370.999785 -395.215074 -419.213748 -442.763692 -465.626017 -487.564706 -508.360063 -527.825508 -545.825614 -562.290451 -577.217508 -590.649074 -602.609610 -612.971825 -621.281052 -626.891634 -629.116216 -626.821287 -619.182123 -606.389166 -591.664179 -580.396478 -578.327755 -584.141065 -593.459172 -608.759299 -642.828049 -697.130684 -751.447242 -776.864950 -767.195750 -764.575162 -834.746062 -1010.912178 -1259.364641 -1495.396710 -1641.826969 -1713.541989 -1793.281862 -1927.953516 -2069.415419 -2130.470731 -2032.033863 -1703.896102 -1076.693367 -138.386495 1022.995055 2252.687926 3453.841667 4614.791797 5783.335797 6964.747435 8128.382980 9287.317559 10498.244769 11832.435530 13304.400406 14913.359214 16628.548987 18315.825643 19907.013014 21375.177164 22693.415013 23841.358960 24743.130753 25290.358217 25416.309593 25162.289283 24638.423212 24082.128535 23788.143429 17247.574596 7688.076146 15377.820610 12243.315205 12561.588224 10347.230540 17101.116968 14981.386945 17164.318070 15527.076317 19261.172214 15340.790511 15307.820688 22658.732369 23251.284429 23581.616234 24245.413242 27187.779392 28085.635836 27100.003627 13586.462111 8286.772965 11260.852683 12108.131520 16605.034664 15804.843748 11756.775970 14515.232006 14248.015020 19076.946066 15486.779562 21362.014070 23797.885037 20435.128568 19594.558842 26941.927028 26501.049521 24602.322042 28077.570517 29165.792781 10851.037829 14227.453416 11282.419869 12805.403211 15180.307044 17491.774342 13880.261008 16002.965503 17560.879842 16948.058078 19328.976650 20440.513210 14553.454772 25584.996276 26240.805898 28799.080516 26935.351148 28796.477198 28107.891202 29251.266906 13529.074504 18222.350177 131386.743716 17323.230394 24324.673081 13295.544205 16132.257107 16899.479642 18022.368835 25990.452546 27533.400262 16607.378874 19024.208193 20895.565849 24668.999926 26586.904123 19225.332507 28857.269554 27799.843921 29319.768954 9002.192875 12599.994943 47758.776510 20305.884760 13523.203776 18871.644450 74004.676912 136830.614976 17271.152559 19932.479848 19214.920676 13706.632257 22156.151537 22092.198783 16001.460537 28193.660902 24861.248801 10742.934174 29029.714627 28216.839497 16153.187523 23769.930982 13276.786484 16454.929289 66862.418008 9260.444039 11715.879168 10138.234556 21068.128171 15749.387008 13412.959752 19524.058776 26061.134943 15214.871134 17471.023948 26399.663594 28509.914639 22313.293680 23751.970883 25247.866483 10657.774069 21820.195272 11407.484712 17505.690899 20877.670158 33974.026627 10107.620823 17685.986835 12942.961203 27849.524944 47459.053648 13667.466529 14518.008162 24694.505462 53607.519573 19302.820769 21756.048200 28423.431698 26136.951163 27252.954239 140042.428542 14033.809899 55746.870611 10429.114424 13184.605145 139660.398291 10365.447038 9562.016557 15056.139132 62779.515531 16610.416301 11796.643087 25065.030271 59951.026854 14012.404869 19053.208132 36142.457981 20187.576530 21817.078392 23468.858633 10601.167932 15890.907468 17499.573587 15938.321919 136905.602541 15069.534208 14916.518111 9826.543949 21489.881619 10503.332058 65474.071578 23372.262095 20505.696582 19862.434083 20686.692826 54780.416069 8310.968303 22865.614324 15239.106078 27434.013069 11074.612603 14125.574930 8850.355675 19613.342157 18626.413311 136494.588553 105614.621520 68454.982202 14735.149038 13022.744303 69864.113481 139038.962822 15735.063226 66072.839035 11425.894320 39081.273838 31725.343173 20029.082143 16721.034225 39754.478077 21133.697093 78897.592153 73349.477400 12477.875783 13727.059459 12252.593563 14493.081728 11850.379323 132593.353006 59290.022423 19089.633358 12350.005923 15543.109252 19011.942713 15227.718621 41707.193924 18038.963056 6853.962156 10606.948730 11340.732735 11379.252411 115039.804513 139991.849191 15688.063692 64942.736537 11795.508213 10649.605844 16028.502390 17602.094703 15401.505926 12646.747158 96553.229096 14324.398333 12294.011498 16139.776481 8969.530001 24855.827112 17348.253361 14354.906526 41605.983427 139511.887153 15416.379793 11557.324726 10586.553956 12856.826402 125794.258980 11077.617819 11812.533288 9328.006438 12528.202523 10733.603828 15125.366102 14604.666363 12508.677090 18941.427513 14775.677768 61766.490759 15031.522465 17931.553146 20993.489433 15060.151454 8476.292805 11929.235007 11376.857119 5673.414128 13836.758818 11524.079529 15623.450308 11923.886324 10938.575251 5896.872924 12073.652517 11741.801838 19466.814895 11552.187061 17461.698091 19738.632373 19306.907725 21603.525581 22429.439919 10898.758428 9141.107015 9138.707422 12794.846815 10492.628649 11253.223501 16630.407458 13402.806207 13347.261683 10562.411816 16420.576381 13470.568375 15109.160253 17192.814550 12850.476506 19652.406573 15811.137880 18623.723994 15658.744107 18889.424696 10925.035489 11688.550456 6980.255936 101442.330556 12882.091259 12691.993370 13699.268477 12754.574373 14254.406856 10953.320621 13214.301191 11809.827577 34896.868827 13488.799129 17754.866332 16588.481308 19760.715746 14676.067586 16275.187094 17773.873705 11867.888519 17861.212860 12187.569044 14096.943220 10869.228096 74180.203012 13016.753365 11705.598788 13778.395822 14733.633975 16139.171363 14868.721255 16558.487504 16832.006709 19052.517814 18608.496991 18658.263333 23590.184250 64162.258865 105061.285002 10259.274395 11605.084526 8770.181640 10078.225574 10942.453679 15171.986303 12130.879361 14471.225727 16593.013930 12203.076532 12105.995801 17863.973711 17517.369289 16830.631609 11913.384392 17708.802118 17928.857045 14544.259896 18696.900182 48806.122167 10705.239959 11207.907330 11267.686229 10324.500488 11291.597331 16018.834541 16921.456473 13829.733084 13117.087999 10497.705712 12825.522105 14161.895932 13591.988026 14488.717141 10988.419205 20633.060000 14909.226331 18715.511067 19609.530626 17881.505774 10856.596523 9013.067494 9627.181228 10561.064147 11899.347923 8781.223910 12128.398569 9386.219906 10541.241206 11739.916864 13910.916548 12706.596532 15670.408561 14129.733410 16584.268836 14696.538991 12880.556238 15847.069254 94908.344413 13187.021470 8876.658330 10766.387815 9503.750136 10536.484689 10076.554399 9745.675733 12864.931817 12219.837831 10076.848490 9435.032717 14649.377055 11780.454150 12804.448282 14611.650729 14447.578405 17752.281770 18375.731364 16225.024486 13058.171869 13765.562290 10349.186718 9299.782357 11099.622076 6116.562619 8093.215926 9327.340545 10263.102948 10210.681165 11407.400882 9707.605465 11225.841349 11567.101587 10629.022283 15622.513669 11560.773288 16644.024471 18015.415176 14397.648976 18526.135368 14617.408388 10018.558901 5611.188264 6255.564048 7147.945359 9151.421721 6482.860409 7702.437240 9471.569849 6510.994500 7973.476028 12504.095422 11614.229512 11359.282047 14939.725721 12893.319749 16521.834325 15324.800624 18697.062633 18209.241795 17740.804012 8698.936370 6512.707615 9312.339811 4992.187218 5802.415541 5873.400427 9166.015453 10626.344712 11163.560528 9271.206968 8776.024172 7925.443620 16216.750842 10132.536692 14282.941220 13949.311617 19834.096770 15151.790189 17217.630595 17811.987871 7306.518949 7796.631008 6709.565525 6554.388248 8630.867902 8359.114016 10898.920801 7570.948314 11344.652167 8971.846439 11896.770198 12081.963819 12878.426527 16756.719086 13857.173838 16452.961270 15677.585610 16101.201960 19927.239290 20692.682514 6482.737622 11839.703553 10789.866976 8036.298999 10451.955283 9464.897004 8015.958667 12609.009463 7166.550419 11524.406293 11336.869133 12665.823465 15397.660495 14508.374893 14301.039808 12724.944990 14068.084194 13949.874041 17928.781346 17211.674198 12489.757870 10080.008580 6090.683885 7495.030780 4663.083374 11194.742302 9549.919969 9247.646525 12455.441012 13032.733410 13273.015530 13497.592114 12669.277528 14648.620548 15624.097114 18770.970483 15978.733714 16468.141820 20554.839016 19111.317163 6214.335269 4819.585259 7181.596214 5319.280757 4913.111625 5420.956126 8813.526418 11531.670608 10887.290136 14592.759169 12776.250677 13034.435355 9680.316476 12393.195294 13293.073580 16867.419279 18631.406623 15093.307270 20904.720047 15014.545845 4183.857574 5725.427581 2986.150438 8536.242932 8839.465253 9206.784869 9121.308917 7391.116373 7503.340879 13180.616128 8392.009072 9949.414534 16141.568085 15992.710907 15076.149028 15354.091795 14194.247429 16197.024263 15029.987941 15818.846228 805.238122 4908.864316 4207.253403 5373.938314 5883.040560 7381.979660 5985.822748 7472.348900 8404.897633 11115.566042 7795.014824 14259.263085 9766.907050 16540.647856 16270.933817 15086.022647 14092.787078 15545.855815 12970.395336 21116.948336 1565.543261 2654.154324 1182.151555 4200.929461 3933.434650 6084.384413 5987.218297 6578.009330 6415.972726 10797.876862 10150.561439 8763.170866 11216.512619 11410.180574 13858.430638 16286.464474 14124.021899 14728.626846 21427.388932 16261.868671 1216.728032 2333.873560 1010.125118 2770.023865 4319.453824 3476.151999 7783.406734 4479.053915 6634.214207 7233.092114 7036.205367 6289.317748 8330.280989 12800.591742 11759.097181 15634.375284 14297.709257 15643.512114 14140.482426 17875.851680 1384.371403 1332.826256 1627.536376 1864.291702 2321.335002 6092.704802 4637.002089 5010.329050 6909.850736 8070.279153 7423.319737 8876.908677 14308.139293 10363.763473 11610.255202 15506.122085 13378.996309 13398.334904 18843.829317 13533.810539 870.948875 1680.643646 1690.894341 1113.193201 2932.601603 5232.769603 4952.438126 6650.949925 7193.978762 6571.625361 7366.297217 9043.121188 7819.810961 9588.350029 12812.886580 12036.767120 12716.378954 16088.402722 20079.694482 20288.618693 1720.453274 920.379367 1669.801971 2042.311505 2948.955415 4820.073808 4030.096257 4186.890178 8209.597119 8211.059675 10293.190986 10888.626920 7694.625433 12371.553737 13152.468550 16578.064291 16958.575930 16821.843046 12370.681064 11712.154840 892.523774 1661.051424 1226.935151 2938.938851 3666.857671 3840.092419 4565.540157 4275.510160 4746.497076 6