<VTKFile type="PolyData">
<PolyData>
<Piece NumberOfPoints="6715" NumberOfVerts="6715" NumberOfLines="0" NumberOfStrips="0" NumberOfPolys="0">
<PointData>
<DataArray type="Float64" Name="Pressure" format="ascii">
 20564.602836 21164.768568 21800.140900 23271.265088 24970.949856 24452.399673 21953.603862 19174.996000 18657.907658 18595.533748 18934.066079 18361.439970 18066.686512 17868.693828 17763.485821 17563.946979 17232.512036 15531.812155 14954.516364 15517.330079 15549.999291 16920.737951 19159.984071 19204.291555 20399.352328 21931.467375 23326.237738 22813.138153 20314.684580 21544.812104 23873.925984 23390.858383 20994.094435 16888.435874 13954.381385 13619.434129 15905.029032 17132.750845 17395.681515 17843.834193 18042.253032 19911.391004 21890.289776 22356.814571 21851.932662 21078.246567 20422.796436 19004.787729 18028.390648 18178.800442 17827.256679 17846.021058 18454.260289 18308.348636 17577.780033 17001.143000 17490.480328 17661.328283 17334.108469 16975.517631 16621.995320 15751.771810 16605.961918 17874.106651 19460.590026 18289.341116 17603.119852 16216.319129 15327.579866 15076.196060 15774.595441 16146.567473 15692.903574 14956.560716 14852.627619 15431.918770 15471.397078 15704.908294 15086.588216 14423.350010 13974.296143 14244.319879 15022.770617 15174.567291 14710.044644 14844.860589 15009.951475 13940.815148 12758.229806 12824.682772 12684.679829 12329.288864 11596.525350 11515.454835 11245.167196 10956.987500 10485.974293 10112.082072 9482.973361 8865.054140 8619.241402 7865.698313 7649.836202 7557.193208 7549.421531 7439.188617 7040.309860 6760.048446 6556.846489 6460.040260 6908.830339 7349.473876 8052.264197 8379.954989 8430.461984 8088.902337 7590.580595 7572.933893 7594.578993 7856.279699 8634.944441 9566.445970 10338.952375 10345.689217 9721.948734 9425.464278 9812.819029 10629.571387 11813.699055 11933.505419 11789.808204 11696.985573 12118.880035 12663.364888 12600.806012 12952.196487 12821.294984 12676.893702 12743.059260 12711.483896 12661.636348 11899.090025 11701.973983 12175.460134 12608.587729 13271.799736 14610.675476 14981.156172 14485.510129 14388.143808 14900.916487 15377.568225 15681.524644 15458.453074 15136.932386 14860.769925 14811.983698 14704.747739 14476.614942 14259.557621 13759.855097 13632.773678 13543.263526 13670.177670 13673.715805 13908.600670 14753.288828 14575.594590 14154.800690 14208.562273 14773.039697 15215.320903 14931.759566 14635.226711 14490.884484 14688.943338 14806.896201 14367.548122 13937.760875 13443.300650 13521.588343 13834.414904 13613.296800 13786.995913 13985.856868 13661.533144 13583.572641 13780.367225 14087.130374 13931.143832 14060.385210 14360.703718 14324.577682 14295.598916 14242.854381 14058.050540 14322.708143 15037.445261 15760.661758 16840.366144 17823.137718 18697.573086 19180.509367 19671.738275 20097.682623 21080.270851 21966.899448 21531.957614 21139.912613 21372.158249 20678.135304 19428.560361 19101.859541 19293.731124 18952.190425 18086.093484 17713.959019 18027.066866 18666.094067 18096.067654 17496.086358 17378.106088 17030.351555 17544.300954 18103.503377 18529.357388 20685.449213 23334.725427 24109.565425 23293.637173 22318.899705 21478.131390 21568.933649 21924.715443 20574.233778 17885.936678 16954.085620 18295.903000 19740.274094 20318.431091 20494.703500 21020.682237 21324.139222 21060.446568 21379.056053 21357.997497 20343.964995 20532.445673 20694.340638 19601.688959 18420.120246 18135.005523 18293.637848 19070.030270 19905.245861 19711.517935 18769.901622 18136.828835 18319.233506 18276.117197 17845.590644 17465.203334 16803.028302 16199.001606 16606.250587 17438.481238 18365.388951 18763.834142 18236.039648 17274.021410 16532.636151 16094.291207 16032.054663 16197.731607 16297.213310 16360.915411 16301.312656 16335.718342 16868.671782 17218.414663 16805.071569 15779.543336 15050.761073 15310.526532 15809.656807 15587.076759 15371.153214 15294.395947 14652.267197 13894.999268 13753.677379 13988.725999 13900.463060 13231.320834 12468.891209 12223.487749 12428.731226 12487.164939 12177.342038 11751.810903 11200.143807 10703.353812 10389.748991 9923.541592 9234.711610 9033.411387 9288.845162 9254.301275 8787.571690 8254.013960 8147.720679 8348.912725 8605.659637 9116.807940 10005.839958 10662.217327 10872.596499 10822.380203 10504.564040 10066.697520 10128.299324 10692.658206 11448.017577 12242.724920 12784.856813 12746.767822 12229.520473 11857.615288 12104.150368 12609.520083 13173.606614 13734.518844 14076.447675 14364.970305 14468.927065 14391.553722 14534.247676 14460.223977 14105.873046 13968.007316 14190.916221 14510.914688 14531.093314 14177.804426 13806.381335 13785.800309 14369.603874 15280.301227 15921.147981 15980.187935 15708.730771 15598.433094 15933.389897 16184.141687 15974.255219 15557.608247 15226.597703 15136.462710 15284.197824 15375.959626 15269.483140 15136.011808 15050.486878 14946.536258 14551.635187 14213.228136 14578.682060 15600.777709 16275.785931 16212.433328 15830.161059 15590.459746 15786.664871 16107.888103 16143.716550 16093.653185 16311.938615 16499.821788 16335.993314 15880.610807 15342.980250 14966.513920 14902.562598 15249.205553 15711.447632 16076.553557 16271.959352 16208.429468 16073.922519 16221.519898 16230.617538 16174.179338 16316.145385 16634.377006 17104.950487 17173.286209 17051.860736 16953.528307 16839.377033 17057.375283 17742.348884 18450.381861 18870.222707 19186.498792 18517.504982 18534.330297 18551.270816 18569.917845 18732.331233 19369.809866 20477.949796 21639.789351 22776.997470 23439.269531 22946.705347 21988.339262 21369.434725 20982.873376 20308.627388 19410.412879 18913.793936 18993.057554 19196.536939 19011.306322 18731.164165 18491.595885 18344.267061 18472.889428 18541.927548 18809.055794 19978.464107 21632.202693 22174.942170 21602.353916 20882.285292 20315.157667 20235.401777 20440.237642 20288.024242 19950.115528 20182.084326 21066.660085 21874.950712 22278.718109 22439.489463 22455.251646 22134.267087 21567.030349 21199.437271 20779.378630 20213.864527 19957.635485 19702.560096 19039.506016 18538.995379 18526.265918 18850.785220 19360.997050 19721.816184 19584.081633 19087.484008 18678.260265 18525.200104 18338.996224 17903.083097 17338.440188 16783.800215 16516.816622 16734.762587 17205.967455 17641.954576 17941.982290 17746.703770 17341.456093 17050.013743 16908.338721 16848.662194 16836.981331 16855.793728 16929.018825 16985.369366 17147.639405 17589.120745 17921.585517 17735.661734 17080.223523 16460.398532 16205.514112 16030.530674 15721.507871 15503.737269 15373.538811 14991.279967 14468.822202 14159.744589 14103.102552 13870.187023 13386.090751 12995.746855 12913.996715 13100.328585 13208.949949 13026.762053 12588.931979 12080.844321 11643.351865 11294.979372 10949.334513 10549.540309 10347.088293 10319.801673 10168.407594 9804.704936 9446.472436 9319.260661 9459.024953 9756.957694 10276.092646 10978.728453 11605.098880 12007.332660 12195.820091 12164.299249 12098.318891 12298.656519 12753.945367 13340.908455 13852.558385 14022.291411 13871.105055 13607.784477 13427.452407 13512.969127 13976.322508 14565.537068 15014.758928 15232.818427 15348.458781 15391.572611 15368.611591 15394.769744 15274.410000 15039.344893 14961.033014 15119.176765 15370.827069 15489.107053 15428.062111 15264.918796 15232.995650 15506.847433 15923.425613 16158.245698 16188.151988 16097.916473 16092.892422 16227.060309 16242.001768 15998.929157 15654.835971 15388.101140 15313.507513 15407.256376 15538.173284 15559.182339 15531.876834 15610.313312 15660.127694 15610.198297 15582.774690 15865.932349 16390.849537 16737.743682 16760.964309 16562.656555 16390.468732 16388.596041 16481.166808 16570.362601 16732.400744 17067.562195 17290.978449 17148.561280 16770.508619 16376.079921 16153.783690 16163.066995 16446.612543 16933.820511 17343.578462 17580.336767 17633.468860 17598.827608 17579.265574 17511.805292 17499.846557 17629.825453 17942.396957 18385.161685 18603.019717 18510.756509 18372.565533 18299.600811 18404.493071 18759.895445 19103.816239 19303.958225 19421.770232 19473.262099 17823.137718 15843.698130 14141.129057 13711.908143 13722.119271 13111.131964 12298.603880 11486.481666 10527.629741 9393.570295 8677.559168 8075.287275 7397.044317 6758.243579 6217.731325 5493.397368 4949.287408 4184.485238 3191.801191 2148.312071 2070.135927 2257.762976 2082.801822 1764.440439 1436.112620 1149.556180 915.650254 731.202723 587.687547 475.733331 387.111770 315.473704 256.368460 206.903838 165.281543 130.364338 101.352035 77.580696 58.423262 43.257723 31.471718 22.481250 15.750251 10.804760 7.239957 4.720699 2.977244 1.797990 1.020825 0.524282 0.219253 0.041715 -0.053380 -0.097042 -0.110116 -0.106239 -0.094039 -0.078750 -0.063356 -0.049399 -0.037532 -0.027886 -0.020310 -0.014526 -0.010214 -0.007068 -0.004817 -0.003235 -0.002141 -0.001398 -0.000900 -0.000572 -0.000358 -0.000222 -0.000135 -0.000082 -0.000049 -0.000029 -0.000017 -0.000010 -0.000005 -0.000003 -0.000002 -0.000001 -0.000000 -0.000000 -0.000000 -0.000000 -0.000000 -0.000000 -0.000000 -0.000000 -0.000000 -0.000000 -0.000000 -0.000000 -0.000000 -0.000000 -0.000000 0.000000 0.000000 19186.498792 18538.184958 17327.361165 16224.452342 15862.666456 15664.790912 15176.377311 14488.075239 13655.368163 12597.915344 11496.686587 10590.075753 9758.194670 8919.824608 8080.587459 7310.956126 6465.744706 5602.388664 4740.762379 3910.192300 3153.605513 2726.223904 2449.479777 2130.032168 1773.487933 1436.291809 1147.594475 913.494399 729.371421 586.278067 474.697676 386.361982 314.921236 255.941847 206.554056 164.979882 130.096869 101.113675 77.370503 58.241407 43.103932 31.344724 22.378825 15.669500 10.742472 7.192909 4.685881 2.951992 1.780044 1.008339 0.515790 0.213621 0.038090 -0.055628 -0.098368 -0.110841 -0.106586 -0.094159 -0.078741 -0.063282 -0.049299 -0.037428 -0.027790 -0.020228 -0.014459 -0.010162 -0.007028 -0.004787 -0.003213 -0.002126 -0.001387 -0.000893 -0.000567 -0.000355 -0.000220 -0.000134 -0.000081 -0.000048 -0.000028 -0.000016 -0.000009 -0.000005 -0.000003 -0.000002 -0.000001 -0.000000 -0.000000 -0.000000 -0.000000 -0.000000 -0.000000 -0.000000 -0.000000 -0.000000 -0.000000 -0.000000 -0.000000 -0.000000 -0.000000 -0.000000 -0.000000 -0.000000 -0.000000 19473.262099 19335.613649 18898.155695 18189.700289 17535.273854 17116.914282 16742.633924 16225.895820 15541.947134 14711.268717 13733.123503 12682.610254 11656.212117 10658.402673 9672.071728 8714.446481 7789.260927 6865.649447 5949.371973 5068.851560 4249.311886 3541.027606 2996.740905 2564.933738 2165.245733 1783.922790 1440.937971 1150.652516 915.881775 731.243251 587.694228 475.734458 387.112007 315.473765 256.368463 206.903827 165.281533 130.364332 101.352032 77.580695 58.423262 43.257723 31.471718 22.481250 15.750251 10.804760 7.239957 4.720699 2.977244 1.797990 1.020825 0.524282 0.219253 0.041715 -0.053380 -0.097042 -0.110116 -0.106239 -0.094039 -0.078750 -0.063356 -0.049399 -0.037532 -0.027886 -0.020310 -0.014526 -0.010214 -0.007068 -0.004817 -0.003235 -0.002141 -0.001398 -0.000900 -0.000572 -0.000358 -0.000222 -0.000135 -0.000082 -0.000049 -0.000029 -0.000017 -0.000010 -0.000005 -0.000003 -0.000002 -0.000001 -0.000000 -0.000000 -0.000000 -0.000000 -0.000000 -0.000000 -0.000000 -0.000000 -0.000000 -0.000000 -0.000000 -0.000000 -0.000000 -0.000000 -0.000000 -0.000000 -0.000000 -0.000000 0.000000 0.000000 -0.000000 0.000000 -0.000000 -0.000000 0.000000 0.000000 0.000000 -0.000000 -0.000000 0.000000 0.000000 0.000000 -0.000000 -0.000000 0.000000 0.000000 0.000000 0.000000 0.000000 0.000000 0.000000 0.000000 0.000000 0.000000 0.000000 0.000000 0.000000 -0.000000 -0.000000 -0.000000 -0.000000 0.000000 0.000000 0.000000 -0.000000 -0.000000 0.000000 0.000000 0.000000 -0.000000 -0.000000 0.000000 -0.000000 0.000000 0.000000 0.000000 0.000000 0.000000 0.000000 0.000000 0.000000 0.000000 0.000000 0.000000 0.000000 0.000000 0.000000 0.000000 0.000000 0.000000 0.000000 0.000000 0.000000 0.000000 0.000000 0.000000 0.000000 -0.000000 0.000000 0.000000 0.000000 0.000000 0.000000 0.000000 0.000000 0.000000 0.000000 0.000000 0.000000 0.000000 0.000000 -0.000000 0.000000 0.000000 0.000000 0.000000 0.000000 0.000000 0.000000 0.000000 0.000000 0.000000 0.000000 0.000000 0.000000 0.000000 0.000000 -0.000000 0.000000 0.000000 -0.000000 0.000000 0.000000 0.000000 0.000000 -0.000000 -0.000000 -0.000000 -0.000000 -0.000000 -0.000000 -0.000000 -0.000000 -0.000000 -0.000000 -0.000000 -0.000000 -0.000000 -0.000000 -0.000000 -0.000000 -0.000000 -0.000000 -0.000000 -0.000000 -0.000000 -0.000000 -0.000000 0.000000 -0.000000 -0.000000 -0.000000 -0.000000 0.000000 0.000000 0.000000 -0.000000 0.000000 0.000000 0.000000 0.000000 -0.000000 0.000000 0.000000 0.000000 0.000000 0.000000 0.000000 0.000000 0.000000 0.000000 0.000000 0.000000 0.000000 0.000000 0.000000 0.000000 -0.000000 0.000000 0.000000 -0.000000 -0.000000 -0.000000 -0.000000 -0.000000 -0.000000 -0.000000 0.000000 -0.000000 -0.000000 -0.000000 -0.000000 0.000000 -0.000000 0.000000 -0.000000 -0.000000 -0.000000 -0.000000 -0.000000 -0.000000 -0.000000 -0.000000 -0.000000 -0.000000 -0.000000 -0.000001 -0.000001 -0.000003 -0.000005 -0.000009 -0.000017 -0.000030 -0.000054 -0.000097 -0.000173 -0.000309 -0.000570 -0.001099 -0.001538 -0.000000 0.000000 0.000000 0.000000 0.000000 0.000000 0.000000 -0.000000 0.000000 0.000000 0.000000 0.000000 -0.000000 0.000000 0.000000 0.000000 0.000000 -0.000000 0.000000 0.000000 0.000000 0.000000 0.000000 0.000000 0.000000 0.000000 0.000000 0.000000 0.000000 0.000000 0.000000 -0.000000 0.000000 0.000000 -0.000000 0.000000 0.000000 0.000000 0.000000 -0.000000 0.000000 0.000000 0.000000 0.000000 -0.000000 0.000000 0.000000 0.000000 0.000000 0.000000 0.000000 0.000000 0.000000 0.000000 0.000000 0.000000 0.000000 0.000000 0.000000 0.000000 0.000000 0.000000 0.000000 0.000000 0.000000 0.000000 0.000000 0.000000 0.000000 -0.000000 -0.000000 0.000000 0.000000 0.000000 0.000000 -0.000000 0.000000 0.000000 0.000000 -0.000000 -0.000000 0.000000 0.000000 -0.000000 -0.000000 0.000000 0.000000 0.000000 -0.000000 0.000000 0.000000 0.000000 0.000000 -0.000000 0.000000 0.000000 0.000000 0.000000 -0.000000 -0.000000 0.000000 0.000000 0.000000 -0.000000 0.000000 0.000000 0.000000 0.000000 -0.000000 -0.000000 -0.000000 -0.000000 -0.000000 -0.000000 -0.000000 -0.000000 -0.000000 -0.000000 -0.000000 -0.000000 -0.000000 -0.000000 -0.000000 -0.000000 -0.000000 -0.000000 -0.000000 -0.000000 0.000000 -0.000000 -0.000000 -0.000000 -0.000000 0.000000 -0.000000 0.000000 0.000000 -0.000000 -0.000000 0.000000 0.000000 0.000000 -0.000000 -0.000000 0.000000 0.000000 0.000000 -0.000000 -0.000000 0.000000 0.000000 0.000000 0.000000 -0.000000 0.000000 0.000000 -0.000000 -0.000000 -0.000000 0.000000 0.000000 -0.000000 0.000000 0.000000 0.000000 -0.000000 0.000000 -0.000000 0.000000 0.000000 -0.000000 0.000000 -0.000000 0.000000 0.000000 0.000000 0.000000 -0.000000 -0.000000 -0.000000 -0.000000 -0.000000 -0.000000 -0.000000 -0.000000 -0.000000 -0.000000 -0.000000 -0.000001 -0.000001 -0.000003 -0.000005 -0.000009 -0.000017 -0.000030 -0.000053 -0.000094 -0.000165 -0.000285 -0.000485 -0.000785 -0.001031 -0.001089 0.000000 -0.000000 0.000000 0.000000 0.000000 0.000000 0.000000 0.000000 0.000000 0.000000 0.000000 0.000000 0.000000 0.000000 0.000000 0.000000 0.000000 0.000000 0.000000 0.000000 0.000000 0.000000 0.000000 0.000000 0.000000 0.000000 0.000000 0.000000 0.000000 0.000000 0.000000 0.000000 0.000000 0.000000 0.000000 0.000000 0.000000 0.000000 0.000000 0.000000 0.000000 0.000000 0.000000 0.000000 0.000000 0.000000 0.000000 0.000000 0.000000 0.000000 0.000000 0.000000 0.000000 0.000000 0.000000 0.000000 0.000000 0.000000 0.000000 0.000000 0.000000 0.000000 0.000000 0.000000 0.000000 0.000000 0.000000 0.000000 0.000000 0.000000 -0.000000 0.000000 0.000000 0.000000 0.000000 0.000000 0.000000 0.000000 0.000000 0.000000 0.000000 -0.000000 0.000000 0.000000 -0.000000 0.000000 0.000000 0.000000 0.000000 0.000000 0.000000 0.000000 0.000000 0.000000 -0.000000 0.000000 0.000000 0.000000 0.000000 -0.000000 -0.000000 0.000000 0.000000 0.000000 0.000000 0.000000 0.000000 0.000000 -0.000000 -0.000000 -0.000000 -0.000000 -0.000000 -0.000000 -0.000000 -0.000000 -0.000000 -0.000000 -0.000000 -0.000000 -0.000000 -0.000000 -0.000000 -0.000000 -0.000000 -0.000000 -0.000000 -0.000000 0.000000 0.000000 0.000000 -0.000000 0.000000 0.000000 0.000000 0.000000 0.000000 0.000000 0.000000 -0.000000 -0.000000 -0.000000 0.000000 0.000000 -0.000000 -0.000000 -0.000000 0.000000 0.000000 -0.000000 0.000000 0.000000 0.000000 0.000000 -0.000000 0.000000 0.000000 0.000000 -0.000000 -0.000000 0.000000 0.000000 0.000000 0.000000 0.000000 0.000000 0.000000 0.000000 0.000000 0.000000 0.000000 0.000000 0.000000 0.000000 0.000000 0.000000 0.000000 0.000000 0.000000 -0.000000 -0.000000 -0.000000 -0.000000 -0.000000 -0.000000 -0.000000 -0.000000 -0.000000 -0.000000 -0.000001 -0.000001 -0.000003 -0.000005 -0.000009 -0.000017 -0.000030 -0.000054 -0.000094 -0.000162 -0.000271 -0.000432 -0.000630 -0.000809 -0.000874 -0.000869 -0.001538 -0.003117 -0.006833 -0.012043 -0.019828 -0.031791 -0.050197 -0.078335 -0.120980 -0.184990 -0.280122 -0.420092 -0.623964 -0.917920 -1.337479 -1.930239 -2.759183 -3.906576 -5.478446 -7.609580 -10.468885 -14.264876 -19.250924 -25.729754 -34.056536 -44.639742 -57.938834 -74.457740 -94.733095 -119.316417 -148.749740 -183.534927 -224.097890 -270.750307 -323.653074 -382.787710 -447.943901 -518.732701 -594.632503 -675.062472 -759.447208 -847.185472 -937.381835 -1028.191065 -1115.729977 -1192.850724 -1248.972871 -1272.518806 -1264.220254 -1251.956879 -1253.846819 -1163.808464 -777.736663 495.219876 1580.905320 555.258089 -1292.854563 -2522.272408 -2342.596413 -190.325838 3124.262125 4236.766490 2385.697224 61.919329 -1654.746983 -1602.307771 -292.380220 371.460256 -553.138209 -466.174628 2186.979247 1165.620197 -147.926400 -957.301543 -412.541752 65.959059 -339.128118 -933.576792 -10.677975 1105.235372 3174.459406 4851.833891 3308.616827 1400.069501 402.729224 3042.118480 5783.759998 8905.251751 10677.251532 13462.283242 15569.449099 16737.512775 16715.581133 18432.930865 18880.760661 18296.463194 18151.174204 19896.612385 20772.099894 21228.555747 20564.602836 -0.001089 -0.001761 -0.003581 -0.006937 -0.011968 -0.019655 -0.031510 -0.049768 -0.077694 -0.120033 -0.183608 -0.278128 -0.417245 -0.619945 -0.912307 -1.329726 -1.919651 -2.744885 -3.887488 -5.453260 -7.576740 -10.426578 -14.211045 -19.183299 -25.645913 -33.954002 -44.516130 -57.792040 -74.286176 -94.535970 -119.094042 -148.503825 -183.268827 -223.816744 -270.460977 -323.363822 -382.507484 -447.681167 -518.493855 -594.420326 -674.875998 -759.285543 -847.058478 -937.329408 -1028.306707 -1116.174266 -1193.807134 -1250.377467 -1273.669558 -1259.143921 -1226.684981 -1207.061743 -1147.586487 -836.721336 -96.686737 588.421296 318.652098 -690.323307 -1503.645349 -1152.741350 270.273697 1574.178439 2094.709928 1610.970022 528.508732 272.433801 740.195448 219.463504 75.617242 1472.364024 2616.716431 2243.688597 1478.285617 213.260374 -961.606936 -1017.964727 -723.446540 -1092.235802 -1392.857306 -850.068961 448.921599 2261.373029 3633.529219 3246.685465 1897.958350 2217.143874 4748.434365 8051.868158 11094.775225 12605.641482 13339.825249 14088.626351 14622.549057 14956.396166 15560.990857 15884.737589 15888.603125 16309.322143 17304.001966 18549.376959 19500.729113 19214.614025 18697.573086 -0.000869 -0.001109 -0.001984 -0.003923 -0.007123 -0.012122 -0.019850 -0.031797 -0.050198 -0.078336 -0.120980 -0.184990 -0.280122 -0.420092 -0.623964 -0.917920 -1.337479 -1.930239 -2.759183 -3.906576 -5.478446 -7.609580 -10.468885 -14.264876 -19.250924 -25.729754 -34.056536 -44.639742 -57.938834 -74.457740 -94.733095 -119.316417 -148.749740 -183.534927 -224.097890 -270.750306 -323.653072 -382.787703 -447.943884 -518.732671 -594.632475 -675.062533 -759.447707 -847.187350 -937.387986 -1028.207859 -1115.766678 -1192.883267 -1248.682497 -1270.981783 -1252.821872 -1204.935201 -1155.610883 -1089.360178 -886.007494 -437.434108 44.926448 33.763952 -504.449716 -945.362074 -801.336390 -148.002835 520.893758 914.422345 1020.217316 959.620466 995.458510 944.850848 684.404461 838.863372 1667.495657 2284.622423 2206.694917 1598.497542 645.485154 -186.461342 -596.757743 -783.861496 -1123.167775 -1237.772802 -813.187683 182.366493 1481.101189 2468.468880 2612.578701 2415.835061 3115.671971 4891.999679 7189.554532 9280.009918 10617.971435 11336.751607 12140.742841 13208.964652 14207.488253 14795.215559 14989.756646 15020.431342 15380.153770 16213.318290 17306.379206 18128.180760 18477.716903 18532.369824 18517.504982 -933.513193 5148.141090 7289.980206 -2513.804899 -389.368463 590.339884 4493.004965 7042.283032 4480.226403 10854.545746 15193.667933 15952.107269 13684.349986 19840.432709 21126.372732 17543.545576 19682.955670 20627.714732 22265.043698 21494.774605 -2824.907064 -149.033019 -123.270403 10278.393486 4366.324938 3282.805621 1294.417532 7959.394733 5600.145935 19542.400751 7941.116787 17477.106262 16187.829811 21042.097914 13727.547584 19352.025795 21936.328345 20069.737164 22327.491328 23112.946712 -587.630855 -1686.022953 -2738.088959 1917.071703 7849.419041 7579.320846 5886.035870 9444.024202 6096.578289 13394.212822 19071.798506 15903.180244 7912.990221 20690.838369 18709.472775 20486.838316 16612.021475 18101.476286 23307.850939 25771.029291 -764.669692 -1058.981120 -37898.787300 9185.101360 -1887.168685 11294.258811 11792.594336 6074.014803 13873.756584 14396.724585 18356.639534 9471.607314 8540.062439 13720.216368 19231.536671 22812.331370 14018.881464 18427.140562 20675.518321 24995.289188 33919.997790 -31648.510790 -47449.657243 5707.035374 -33774.856204 56970.590237 -37641.756264 -33525.541071 17400.974602 13351.259382 14500.549908 1474.456656 10720.146414 17012.445624 11227.376006 20982.624860 14067.255514 42897.553889 23143.910770 24511.281741 71075.411221 3357.654125 -45481.336694 5119.499028 20714.609430 -7336.305295 -23819.089077 26876.236732 8612.768015 17230.843012 22157.745585 27969.887706 15656.872808 16455.432216 17365.894929 20220.295292 14514.960529 20937.043849 18250.154669 16044.162178 -5208.981253 -6767.101447 1741.037224 8941.167874 13814.715047 -46983.519191 3444.034277 6673.328264 4393.534437 8221.557657 17914.886750 5128.945692 15334.884086 26033.233316 9402.939209 26469.504564 18940.452570 17487.450320 19462.056748 20171.819716 -38109.900818 78957.986905 72716.058714 -26543.346853 16338.868793 -42905.305394 -10403.201100 -3587.440902 67684.593734 -40354.642034 -909.336958 25003.581687 19449.777851 24309.830275 -38487.371903 22822.206667 26302.187005 16688.689022 20446.687286 24383.874996 5330.539989 -2454.254801 10662.970139 5648.459623 -44433.040773 -26528.955456 6430.472235 16256.433267 23595.831661 -23876.037745 18626.609792 23386.231878 25051.103707 27932.048310 23530.504612 24152.486615 19209.071306 22801.533374 26190.921628 21673.141659 -30969.421764 62513.080272 6206.479130 15701.977175 6771.646832 -34841.939011 18500.498785 1905.503875 4669.639570 -26491.036517 -31616.201064 20685.877447 18026.838952 23706.170234 17968.707181 20885.541140 18436.713558 18858.819928 15990.272992 19833.140099 85061.046029 -44193.148537 2933.351622 16943.478812 16917.140611 7858.483028 -7066.644435 13261.816674 7405.607148 25376.186537 17312.190335 15337.791151 28660.857678 22457.596503 36874.165395 20287.281498 14122.164315 23864.797317 17887.367358 15581.228491 790.223568 82117.143846 -5601.890927 12676.286033 -15738.594269 13618.100638 -22977.643854 107.325277 14128.949844 26336.217766 14952.216707 85185.883815 15299.736439 33634.596236 15614.564359 15465.899760 17474.346619 16385.114372 14953.545671 17672.213447 -18658.061303 18.473679 -3175.041930 -1820.526556 51489.285611 -37902.949088 -28227.875967 22948.180652 -21855.788924 26493.595612 14084.057972 8697.107780 34703.752285 14103.999789 17000.454786 14752.624911 20445.345809 16350.485806 21278.932268 17883.450343 -11778.772058 67433.834018 7378.542316 19649.039392 -42780.892439 18856.821345 1203.211350 7003.889713 12085.949937 15982.648665 -13399.777182 17508.178023 3121.586929 14528.163209 13451.411505 18877.535917 16653.704989 18557.946308 25270.039540 19105.964366 -7907.643369 8552.757232 8363.027053 26183.556492 -3875.847869 17612.612787 10331.777130 11046.529847 23859.494482 23458.001527 10337.393242 5851.852112 10591.021298 14509.793921 18595.196090 16938.272888 22566.767338 20635.035834 20145.497074 18299.870051 23521.270747 21437.703083 -5031.980484 -89.690609 11740.518957 11817.586092 4491.455874 18043.552346 5708.827501 4014.361609 18231.242197 18718.057121 1589.860183 23618.740787 5234.683581 20827.245598 17758.740239 15348.399524 15425.063240 16563.779403 2867.408255 5785.433943 11449.522720 11308.596046 25759.343845 9474.546804 3250.855262 26822.700432 3366.798813 8663.002074 19666.082602 8856.141391 12513.612978 18301.732983 22182.891241 18819.242963 15044.682404 16102.831646 16139.283825 14717.248842 8600.265119 -16315.643942 -3930.768186 1002.268425 5099.001797 28221.363764 7381.520830 2170.292610 7856.326553 16996.586426 21827.791112 13717.871005 18634.207400 15908.600472 22670.414379 20712.011715 19355.751500 17872.957755 18060.707329 14391.931398 12303.565209 10453.159661 18294.890205 10910.460664 11627.700958 14135.451856 12570.634772 12567.229500 12303.976336 8974.896986 15575.048877 17989.468865 11652.084727 14776.415302 13488.401168 17372.922464 16388.710856 16358.230608 17726.329635 17560.370926 8080.038125 11191.402635 10779.714768 6445.778258 12265.399796 14242.448665 10870.664870 11819.530141 15961.071076 16052.002590 19667.803625 19137.148786 18413.543439 18817.984456 17152.569253 13775.392494 14334.046842 17334.935780 14273.376831 14763.572384 7585.297731 8436.318125 9019.828764 11727.776793 15450.846744 6894.573127 9722.864035 14545.976462 15870.637957 18506.336440 18699.542798 18594.691240 19508.929952 18050.031890 18213.617443 20849.172211 16333.557119 18202.299947 19254.052509 19043.833817 8801.164682 11614.020528 7392.258101 14173.377198 12516.222057 8938.120873 17205.295155 8243.078182 17909.534167 16211.433382 19920.942284 12966.180012 19525.372670 18618.821951 17511.585440 16824.480977 16658.162851 17764.854629 17921.454902 20881.323228 8382.612708 13404.748397 13605.741901 14551.967872 14101.364099 11073.204769 14494.636551 13825.723067 14012.171336 14495.978032 20730.959424 20066.212810 17582.591642 18964.727465 19063.179731 17198.899656 17925.749831 14133.685510 18143.188143 17023.997608 8097.962151 8955.224134 13400.708669 7593.898090 7661.234989 13754.347422 10044.865458 10591.071771 13275.801543 18417.955814 14198.105616 16231.272226 17002.226281 13182.948696 15086.115158 17574.382465 18251.498068 15861.445641 17048.231495 20555.933293 8118.384670 8330.252278 7478.230969 6724.621762 7993.491349 8584.228964 11404.524250 11236.906308 15883.199089 11339.656252 15227.625691 16181.608475 16361.615077 17583.956810 15552.627974 16769.237516 16870.402616 16586.623158 16499.635016 23655.959450 7997.217585 12327.339737 10617.467046 9044.455503 10530.878261 10723.678462 9375.393225 14185.389334 9260.684838 13654.144603 13043.478964 19013.339964 14598.408668 16266.578947 15712.782682 16002.718310 16632.646594 16174.217869 13964.539281 19948.646228 9174.151251 8493.507484 8362.837674 8146.850357 5683.189045 9383.921771 8650.888620 11169.919784 17564.803179 12726.025549 16964.160641 18407.030671 14107.884758 16711.338734 16529.224426 15673.120639 19352.850158 20827.524012 23410.630859 17924.099105 8576.211120 8415.557452 7233.698260 8454.986125 9235.523799 7622.605071 9791.708057 12562.648193 10899.652066 18967.112487 15468.347930 14410.829046 17048.959540 15749.969053 15177.109408 16834.617613 16737.639763 15916.197536 16163.660601 15041.801656 8424.303569 7949.453560 4666.563807 7167.401949 7925.863448 8321.211468 9879.052088 10617.157964 8519.579447 13715.890669 9052.609892 12221.782193 19176.066799 18721.247284 17070.271097 18583.856674 20340.596687 18483.650596 17225.143193 13923.396111 -1991.684709 6018.352609 2357.473332 6412.858530 8541.710183 9008.609613 8067.875533 8018.187887 9250.474182 14457.537888 8382.400623 15842.858660 13254.758315 19921.588160 19969.159011 18230.525574 16645.208719 21569.026773 16806.795862 22863.486649 -1369.789395 456.523314 415.923784 3144.358897 2256.371370 6436.804179 8080.838397 7297.427109 7841.588690 12185.806437 11811.870070 13787.963498 13538.008287 15848.632350 18065.961190 19652.368572 16836.651510 14584.366264 22190.606035 11705.687021 520.034015 -2904.377075 1719.385684 1373.202583 4917.330774 3625.502377 8745.680255 8108.248874 8039.259084 10615.446707 8930.891584 8731.217584 9802.178803 16828.230201 12187.697496 18070.754590 14297.294287 18005.149081 18834.373753 15728.325456 -374.759074 -3604.352385 722.475630 1611.107798 2578.185653 4756.130584 4646.578518 7932.358643 8566.589932 9230.496135 9376.770315 10385.355289 11212.270962 11065.735899 10120.867594 18755.629209 13553.303632 18398.779519 12851.727141 17148.396297 1489.844892 383.002729 94.614196 1021.218729 2479.677318 5182.333689 3330.348604 7068.546741 6543.917062 8475.161453 8524.886133 10242.220600 10748.513462 11714.725684 10065.178817 10722.236370 16251.195287 18862.920754 13115.116881 11626.214661 -1015.770328 -1148.276376 -74.930865 1476.562784 2740.887132 2872.612548 3430.551288 3381.105050 10003.280357 9762.437681 10555.120991 10908.717780 10398.960759 11352.056467 12346.797610 14011.381963 19215.760256 13557.007911 12951.731536 15365.483228 -2376.831484 1501.177402 1429.056997 874.604023 2468.750122 2356.665565 2415.687085 4368.236249 4955.221792 7999.334570 9553.759305 10228.728695 12354.868022 10931.515244 10442.674749 13285.548930 15022.047946 14144.203266 16208.394061 16029.482237 696.135130 3032.962749 295.153554 913.377617 2849.127783 2734.553984 2815.628240 4262.393144 8528.515595 8627.929645 11