<VTKFile type="PolyData">
<PolyData>
<Piece NumberOfPoints="6715" NumberOfVerts="6715" NumberOfLines="0" NumberOfStrips="0" NumberOfPolys="0">
<PointData>
<DataArray type="Float64" Name="Pressure" format="ascii">
 20081.674963 19124.867571 17833.387860 17126.857380 17002.563778 17120.016938 17376.716600 17681.156152 17839.026650 17666.934369 17385.726356 16928.079876 16703.171380 17454.450194 18561.242806 19086.955390 20282.011716 20109.943209 19104.803740 17564.264645 16318.945612 16163.544271 16266.196803 16193.562443 15912.187592 15732.975334 15875.073768 16337.241350 16994.642964 17629.382413 18289.358050 19219.682990 20098.947919 20718.332394 20931.047999 20884.134620 20836.195922 20543.916557 19848.614126 19458.894861 19765.916195 20572.607489 21357.016304 21628.328351 21358.143139 20742.084010 20279.780008 20062.794923 20008.866585 20140.977401 20458.859643 20803.023641 21271.974110 21812.584402 22474.872064 23134.114965 23500.877379 23829.492424 24197.405166 25223.796026 26567.019213 27474.778365 27996.831637 27886.328245 27505.173386 27196.700010 27375.660102 27847.101570 28577.691414 29467.081923 30140.214040 30275.633904 30178.062462 30203.882351 30233.373092 30564.797383 31032.403038 31196.849100 30875.273390 30309.500580 29867.395989 29585.079040 29342.325270 29117.890760 28855.584403 29101.397716 29574.109860 30005.495840 30028.092835 29699.665766 29085.314845 28311.999853 27436.226366 26836.326757 26536.423992 26460.627701 26579.178965 26954.067059 27185.692865 27297.140842 27380.083098 27347.878351 27308.769214 27237.919614 27106.633682 26692.384838 26299.352229 25919.423391 25646.714360 25518.311826 25353.726257 25212.868212 25077.970981 25067.325732 25153.049425 25287.314672 25386.005931 25434.715514 25411.718982 25126.326812 24661.686379 24185.970434 23882.062495 23601.755248 23349.371183 23167.970252 22990.157599 22861.668056 22885.059463 23030.210666 23376.026262 23682.882450 23860.316382 23958.940412 23922.442689 23883.942197 23994.712961 24241.855113 24648.427970 24978.402428 25178.182966 25203.576436 25129.119588 24926.710424 24763.409325 24654.451925 24606.004997 24531.633533 24386.545530 24202.413236 24002.891078 23831.100595 23707.994316 23597.405369 23585.138640 23653.539345 23756.261323 23788.241584 23768.106883 23621.302297 23341.774352 22979.777666 22554.688819 22106.301067 21790.602389 21621.734401 21578.003075 21609.890134 21648.918325 21656.428251 21643.951626 21559.227745 21469.211270 21333.470674 21269.049394 21285.704461 21359.698674 21435.059623 21500.638484 21509.991774 21440.593275 21307.748084 21239.686475 21222.572784 21247.937781 21367.307772 21540.997691 21735.706471 21969.367430 22164.215413 22312.119020 22291.048947 22146.649322 21901.569481 21685.701474 21541.645966 21389.104447 21076.255432 20545.269425 19708.736354 18918.582605 22152.050646 21261.745661 20256.365077 19298.319106 18609.840723 18232.134955 18108.715609 18222.839263 18498.087003 18778.682302 18935.894495 18877.110542 18511.204147 17852.956654 16996.450770 16301.771427 15888.463912 15573.674567 15620.834901 15997.177317 16101.371869 16346.040716 16747.150501 17001.948335 16947.957164 16749.751040 16627.992522 16799.575995 17274.750201 17891.720942 18513.597235 19102.225610 19830.105629 20623.919116 21268.019663 21557.968018 21537.462827 21372.430294 20992.803400 20507.865196 20273.998703 20555.723798 21223.518871 21844.259536 22016.343419 21675.911905 21027.208198 20548.249583 20303.427492 20300.914498 20498.452549 20834.063975 21243.446605 21744.172669 22244.089786 22827.635458 23446.812351 23941.301724 24311.270394 24873.440733 25836.694742 26916.137166 27695.772093 28026.350388 27977.375274 27734.556137 27604.880747 27801.108309 28273.060910 28874.956778 29526.725269 30040.188913 30235.822264 30208.558071 30169.914400 30272.630623 30581.897005 30979.240077 31188.574845 31020.867781 30609.451055 30188.207926 29800.767880 29396.529286 29032.038717 28757.904321 28734.243589 29189.523684 29605.723874 29570.541104 29301.198332 28865.346071 28190.442233 27495.358314 26968.125305 26639.855278 26565.560884 26702.195510 26922.060702 27143.797251 27302.729569 27387.593350 27439.509258 27463.524768 27421.188210 27314.668321 27069.680510 26664.932265 26296.228165 26046.407415 25856.623615 25646.436891 25426.654693 25273.411302 25263.326748 25354.533340 25491.656306 25647.883106 25752.691060 25669.991489 25366.663465 24932.418845 24510.370053 24190.204140 23889.501533 23622.556147 23412.415035 23191.806632 22997.891083 22985.627017 23144.516198 23451.797621 23781.788918 24017.694481 24090.923093 24071.358782 24084.196793 24191.663644 24421.330227 24731.757524 25008.394952 25192.036470 25214.702910 25088.616512 24921.823326 24781.059063 24659.366103 24552.739516 24435.011130 24281.263707 24089.797942 23874.823978 23670.568810 23507.625591 23423.734519 23450.253104 23550.124466 23657.080995 23691.523533 23633.476798 23491.523153 23223.827376 22835.822940 22411.856921 22027.894844 21728.016079 21532.831926 21462.874284 21494.699684 21543.106152 21544.581765 21519.951282 21474.322397 21396.047212 21319.506300 21294.048438 21310.744466 21358.398431 21406.052059 21431.522189 21427.155250 21355.777828 21247.494629 21179.031698 21152.858645 21176.327240 21276.543307 21434.844571 21628.469499 21849.077264 22047.570819 22151.253240 22110.438095 21936.848074 21696.350886 21473.877738 21292.791941 21096.758445 20781.169586 20224.049557 19403.688354 18604.408990 18070.835510 23160.145689 22743.301640 21889.417481 20878.506245 19970.758127 19271.081362 18820.320274 18634.449886 18696.671894 18956.083972 19306.743144 19601.000154 19659.632919 19334.945266 18576.533477 17455.088898 16271.291150 15361.903713 14820.665339 14780.622391 15178.198137 15811.817124 16512.075036 17088.846556 17356.123789 17308.962854 17141.825525 17079.939450 17286.766114 17747.646866 18342.515395 18971.999182 19609.636053 20288.053388 20969.397485 21520.684919 21817.884724 21829.891211 21600.832152 21231.196176 20899.619419 20797.992391 21042.041131 21518.650875 21937.754881 22038.584190 21754.912266 21252.184676 20807.970351 20588.410792 20630.806105 20858.768188 21167.104800 21533.972847 21967.595233 22473.850384 23039.387979 23598.296577 24090.328717 24563.433154 25213.190321 26101.826984 27057.751829 27779.688423 28111.846871 28109.005800 27950.310434 27882.002678 28045.844943 28455.127366 28997.050934 29551.034433 29982.793591 30197.300670 30232.035697 30221.390779 30316.584946 30541.909130 30815.080469 30972.654058 30915.229577 30676.623515 30336.037962 29943.301561 29506.861008 29100.952063 28836.861559 28806.416418 29032.934337 29254.069497 29240.632498 28978.879482 28511.475975 27905.662139 27324.688447 26882.084812 26634.380638 26608.233780 26757.375580 26971.517644 27177.796138 27329.617169 27427.987025 27509.456550 27558.452272 27534.318323 27411.771795 27180.929511 26846.329165 26505.725040 26218.828498 25968.192694 25732.739830 25521.398140 25389.531053 25366.664973 25443.808756 25580.552101 25726.343391 25803.701192 25730.508947 25483.017009 25122.594701 24743.064843 24391.794776 24076.301012 23799.438181 23557.702246 23326.872343 23134.416961 23068.284933 23181.161855 23439.140425 23754.688203 24020.678983 24166.598435 24220.359571 24252.431958 24330.265417 24503.608906 24752.809226 24994.801121 25148.168112 25166.472496 25055.483381 24894.595344 24744.096041 24621.905075 24511.559235 24390.342529 24230.623450 24026.529965 23798.189381 23579.976991 23414.846615 23339.745625 23358.836956 23443.306256 23534.685986 23570.296245 23519.239882 23378.779392 23124.780742 22769.786954 22376.561237 22006.290793 21707.913895 21511.879223 21429.947120 21432.957383 21452.192424 21449.696528 21430.691083 21397.382425 21347.067453 21307.549001 21291.915568 21304.700040 21338.514814 21372.586352 21385.218620 21362.185265 21296.713857 21208.111084 21134.774561 21101.742355 21125.115154 21215.246034 21369.348114 21567.483311 21777.244518 21948.523835 22021.642751 21969.396020 21805.022373 21584.174319 21372.494773 21179.174189 20947.420222 20587.359714 20019.945274 19264.211250 18466.925952 17888.935708 17647.485839 18918.582605 19322.177230 19569.558562 19440.943185 19054.750618 18588.592900 18015.216046 17241.624211 16318.796315 15387.530662 14444.050509 13256.554277 11925.949741 10570.085833 9272.885438 7982.814441 6607.705654 5226.465005 4279.741812 3428.157948 2832.016444 2111.469051 1574.242674 1200.715637 943.500714 772.384123 661.382083 589.161089 539.916397 502.726274 470.576520 439.365219 407.083891 373.146481 337.848680 301.952720 266.388596 232.056318 199.710163 169.905154 142.987208 119.110991 98.272685 80.348271 65.131022 52.364487 41.769246 33.063071 25.975012 20.254342 15.675468 12.039853 9.175897 6.937481 5.201777 3.866689 2.848215 2.077892 1.500426 1.071552 0.756149 0.526598 0.361379 0.243878 0.161398 0.104331 0.065483 0.039526 0.022562 0.011772 0.005146 0.001268 -0.000840 -0.001845 -0.002190 -0.002165 -0.001953 -0.001664 -0.001362 -0.001083 -0.000841 -0.000640 -0.000479 -0.000353 -0.000256 -0.000184 -0.000131 -0.000092 -0.000064 -0.000044 -0.000030 -0.000020 -0.000014 -0.000009 -0.000006 -0.000004 -0.000002 -0.000002 -0.000001 -0.000000 -0.000000 18070.835510 18403.977104 18740.840047 18921.123288 18822.480038 18486.163574 18026.608465 17444.693055 16717.477478 15895.051762 14997.017926 14006.607048 12870.391326 11610.677388 10316.774687 9025.984460 7723.566645 6436.565761 5219.050615 4196.357750 3346.902569 2649.405831 2041.556136 1552.865717 1190.791004 937.956756 769.138692 659.478941 588.108989 539.391458 502.522001 470.554082 439.428542 407.168878 373.214021 337.878580 301.938266 266.331909 231.964612 199.592929 169.772189 142.847385 118.971605 98.139227 80.224488 65.019139 52.265503 41.683241 32.989491 25.912902 20.202532 15.632707 12.004903 9.147588 6.914749 5.183677 3.852396 2.837022 2.069201 1.493735 1.066448 0.752291 0.523711 0.359240 0.242310 0.160262 0.103518 0.064909 0.039127 0.022288 0.011588 0.005024 0.001190 -0.000889 -0.001874 -0.002206 -0.002173 -0.001956 -0.001664 -0.001361 -0.001081 -0.000839 -0.000638 -0.000477 -0.000351 -0.000255 -0.000183 -0.000130 -0.000091 -0.000063 -0.000044 -0.000030 -0.000020 -0.000013 -0.000009 -0.000006 -0.000004 -0.000002 -0.000002 -0.000001 -0.000000 -0.000000 -0.000000 17647.485839 17814.978220 18130.324680 18429.297037 18569.327311 18488.038593 18197.648445 17746.693863 17165.972175 16469.940056 15674.316906 14782.831886 13783.861471 12667.868920 11456.461718 10191.195887 8903.838689 7616.335280 6362.376913 5196.557725 4177.891340 3320.379698 2608.785011 2018.395558 1546.189836 1191.089377 940.051495 771.193287 660.973199 589.040589 539.884745 502.718105 470.574334 439.364605 407.083712 373.146429 337.848665 301.952716 266.388595 232.056318 199.710163 169.905154 142.987208 119.110991 98.272685 80.348271 65.131022 52.364487 41.769246 33.063071 25.975012 20.254342 15.675468 12.039853 9.175897 6.937481 5.201777 3.866689 2.848215 2.077892 1.500426 1.071552 0.756149 0.526598 0.361379 0.243878 0.161398 0.104331 0.065483 0.039526 0.022562 0.011772 0.005146 0.001268 -0.000840 -0.001845 -0.002190 -0.002165 -0.001953 -0.001664 -0.001362 -0.001083 -0.000841 -0.000640 -0.000479 -0.000353 -0.000256 -0.000184 -0.000131 -0.000092 -0.000064 -0.000044 -0.000030 -0.000020 -0.000014 -0.000009 -0.000006 -0.000004 -0.000002 -0.000002 -0.000001 -0.000001 -0.000000 -0.000000 -0.000000 -0.000000 -0.000000 -0.000000 -0.000000 -0.000000 -0.000000 -0.000000 -0.000000 -0.000000 -0.000000 -0.000000 -0.000000 -0.000000 -0.000000 -0.000000 0.000000 0.000000 0.000000 0.000000 0.000000 0.000000 0.000000 0.000000 0.000000 0.000000 0.000000 0.000000 0.000000 -0.000000 -0.000000 -0.000000 -0.000000 0.000000 0.000000 0.000000 -0.000000 -0.000000 0.000000 0.000000 0.000000 -0.000000 -0.000000 0.000000 -0.000000 0.000000 0.000000 0.000000 0.000000 0.000000 0.000000 0.000000 0.000000 0.000000 0.000000 0.000000 0.000000 0.000000 0.000000 0.000000 0.000000 0.000000 0.000000 0.000000 0.000000 0.000000 0.000000 0.000000 0.000000 -0.000000 0.000000 0.000000 0.000000 0.000000 0.000000 0.000000 0.000000 0.000000 0.000000 0.000000 0.000000 0.000000 0.000000 -0.000000 0.000000 0.000000 0.000000 0.000000 0.000000 0.000000 0.000000 0.000000 0.000000 0.000000 0.000000 0.000000 0.000000 0.000000 0.000000 -0.000000 0.000000 0.000000 -0.000000 0.000000 0.000000 0.000000 0.000000 -0.000000 -0.000000 -0.000000 -0.000000 -0.000000 -0.000000 -0.000000 -0.000000 -0.000000 -0.000000 -0.000000 -0.000000 -0.000000 -0.000000 -0.000000 -0.000000 -0.000000 -0.000000 -0.000000 -0.000000 -0.000000 -0.000000 -0.000000 0.000000 -0.000000 -0.000000 -0.000000 -0.000000 0.000000 0.000000 0.000000 -0.000000 0.000000 0.000000 0.000000 0.000000 -0.000000 0.000000 0.000000 0.000000 0.000000 0.000000 0.000000 0.000000 0.000000 0.000000 0.000000 -0.000000 -0.000000 -0.000000 -0.000000 -0.000000 -0.000000 -0.000000 -0.000000 -0.000000 -0.000000 -0.000000 -0.000000 -0.000000 -0.000000 -0.000000 -0.000000 -0.000000 -0.000001 -0.000001 -0.000002 -0.000003 -0.000005 -0.000008 -0.000012 -0.000020 -0.000032 -0.000050 -0.000079 -0.000123 -0.000191 -0.000294 -0.000451 -0.000688 -0.001042 -0.001568 -0.002346 -0.003487 -0.005153 -0.007569 -0.011049 -0.016037 -0.023150 -0.033265 -0.047680 -0.068523 -0.100139 -0.151278 -0.188866 -0.000000 -0.000000 -0.000000 -0.000000 -0.000000 -0.000000 -0.000000 -0.000000 -0.000000 -0.000000 -0.000000 -0.000000 -0.000000 -0.000000 0.000000 0.000000 0.000000 -0.000000 0.000000 0.000000 0.000000 0.000000 0.000000 0.000000 0.000000 0.000000 0.000000 0.000000 0.000000 0.000000 0.000000 -0.000000 0.000000 0.000000 -0.000000 0.000000 0.000000 0.000000 0.000000 -0.000000 0.000000 0.000000 0.000000 0.000000 -0.000000 0.000000 0.000000 0.000000 0.000000 0.000000 0.000000 0.000000 0.000000 0.000000 0.000000 0.000000 0.000000 0.000000 0.000000 0.000000 0.000000 0.000000 0.000000 0.000000 0.000000 0.000000 0.000000 0.000000 0.000000 0.000000 -0.000000 0.000000 -0.000000 0.000000 0.000000 -0.000000 0.000000 0.000000 0.000000 -0.000000 -0.000000 0.000000 0.000000 -0.000000 -0.000000 0.000000 0.000000 0.000000 -0.000000 0.000000 0.000000 0.000000 0.000000 -0.000000 0.000000 0.000000 0.000000 0.000000 -0.000000 -0.000000 0.000000 0.000000 0.000000 -0.000000 0.000000 0.000000 0.000000 0.000000 -0.000000 -0.000000 -0.000000 -0.000000 -0.000000 -0.000000 -0.000000 -0.000000 -0.000000 -0.000000 -0.000000 -0.000000 -0.000000 -0.000000 -0.000000 -0.000000 -0.000000 -0.000000 -0.000000 -0.000000 0.000000 -0.000000 -0.000000 -0.000000 -0.000000 0.000000 -0.000000 0.000000 0.000000 -0.000000 -0.000000 0.000000 0.000000 0.000000 -0.000000 -0.000000 0.000000 0.000000 0.000000 -0.000000 -0.000000 0.000000 0.000000 0.000000 0.000000 -0.000000 0.000000 0.000000 -0.000000 -0.000000 -0.000000 -0.000000 -0.000000 -0.000000 -0.000000 -0.000000 -0.000000 -0.000000 -0.000000 -0.000000 -0.000000 -0.000000 -0.000000 -0.000001 -0.000001 -0.000002 -0.000003 -0.000005 -0.000008 -0.000012 -0.000020 -0.000031 -0.000050 -0.000078 -0.000122 -0.000189 -0.000292 -0.000448 -0.000683 -0.001034 -0.001557 -0.002329 -0.003464 -0.005119 -0.007520 -0.010979 -0.015930 -0.022975 -0.032932 -0.046913 -0.066390 -0.093045 -0.127141 -0.153619 -0.161616 -0.000000 -0.000000 -0.000000 -0.000000 -0.000000 -0.000000 -0.000000 -0.000000 -0.000000 -0.000000 -0.000000 -0.000000 -0.000000 -0.000000 -0.000000 0.000000 0.000000 0.000000 0.000000 0.000000 0.000000 0.000000 0.000000 0.000000 0.000000 0.000000 0.000000 0.000000 0.000000 0.000000 0.000000 0.000000 0.000000 0.000000 0.000000 0.000000 0.000000 0.000000 0.000000 0.000000 0.000000 0.000000 0.000000 0.000000 0.000000 0.000000 0.000000 0.000000 0.000000 0.000000 0.000000 0.000000 0.000000 0.000000 0.000000 0.000000 0.000000 0.000000 0.000000 0.000000 0.000000 0.000000 0.000000 0.000000 0.000000 0.000000 0.000000 0.000000 0.000000 0.000000 -0.000000 0.000000 0.000000 0.000000 0.000000 0.000000 0.000000 0.000000 0.000000 0.000000 0.000000 -0.000000 0.000000 0.000000 -0.000000 0.000000 0.000000 0.000000 0.000000 0.000000 0.000000 0.000000 0.000000 0.000000 -0.000000 0.000000 0.000000 0.000000 0.000000 -0.000000 -0.000000 0.000000 0.000000 0.000000 0.000000 0.000000 0.000000 0.000000 -0.000000 -0.000000 -0.000000 -0.000000 -0.000000 -0.000000 -0.000000 -0.000000 -0.000000 -0.000000 -0.000000 -0.000000 -0.000000 -0.000000 -0.000000 -0.000000 -0.000000 -0.000000 -0.000000 -0.000000 0.000000 0.000000 0.000000 -0.000000 0.000000 0.000000 0.000000 0.000000 0.000000 0.000000 0.000000 -0.000000 -0.000000 -0.000000 0.000000 0.000000 -0.000000 -0.000000 -0.000000 0.000000 0.000000 -0.000000 0.000000 0.000000 0.000000 0.000000 -0.000000 0.000000 -0.000000 -0.000000 -0.000000 -0.000000 -0.000000 -0.000000 -0.000000 -0.000000 -0.000000 -0.000000 -0.000000 -0.000000 -0.000000 -0.000000 -0.000000 -0.000000 -0.000001 -0.000001 -0.000002 -0.000003 -0.000005 -0.000008 -0.000012 -0.000020 -0.000032 -0.000050 -0.000079 -0.000123 -0.000191 -0.000294 -0.000451 -0.000688 -0.001042 -0.001568 -0.002346 -0.003487 -0.005152 -0.007566 -0.011042 -0.016011 -0.023061 -0.032963 -0.046662 -0.065092 -0.088457 -0.114315 -0.136578 -0.146221 -0.147224 -0.188866 -0.286770 -0.491089 -0.731138 -1.027064 -1.404111 -1.888768 -2.512267 -3.312155 -4.333601 -5.630659 -7.267536 -9.319828 -11.875700 -15.036915 -18.919646 -23.654964 -29.388868 -36.281735 -44.507033 -54.249125 -65.700014 -79.054844 -94.506025 -112.235871 -132.407701 -155.155474 -180.572126 -208.696977 -239.502740 -272.882843 -308.639928 -346.476428 -385.988046 -426.660733 -467.871437 -508.892697 -548.901492 -586.994297 -622.213816 -653.597746 -680.262199 -701.522196 -717.021224 -726.812691 -731.311406 -731.101008 -726.772955 -719.200029 -711.279386 -713.046103 -745.955272 -789.453863 -858.317829 -972.315078 -1033.561323 -1012.156164 -885.194286 -902.464132 -1117.929026 -1541.851162 -1859.437229 -1723.518741 -1193.987633 -1047.857793 -1443.909563 -2109.544330 -2664.289373 -2744.051696 -2353.680900 -1930.087728 -1538.042953 -1285.201308 -1121.082665 -699.029241 -368.741252 -109.251114 316.451327 846.508551 1513.206436 2276.152066 3165.209557 3869.389725 4623.124057 5137.614558 5668.329277 6243.557607 6895.820212 7715.691520 8491.971897 9214.819220 9788.891604 10425.445480 11119.921408 12034.653529 12944.865992 13873.685535 14782.777581 16344.782625 18568.676345 20081.674963 -0.161616 -0.206605 -0.318255 -0.500439 -0.731285 -1.024188 -1.399482 -1.882564 -2.504314 -3.302138 -4.321124 -5.615263 -7.248700 -9.296978 -11.848212 -15.004126 -18.880871 -23.609513 -29.336074 -36.220988 -44.437819 -54.171076 -65.612963 -78.958890 -94.401601 -112.123812 -132.289319 -155.032613 -180.447213 -208.573040 -239.383399 -272.772257 -308.542704 -346.397489 -385.932467 -426.633565 -467.877534 -508.936535 -548.986911 -587.124021 -622.388489 -653.814301 -680.511957 -701.790394 -717.289796 -727.064065 -731.543674 -731.321799 -726.919052 -719.047166 -710.061079 -706.603335 -721.789201 -761.900223 -813.224820 -861.579320 -877.197464 -841.656495 -831.848051 -951.733804 -1220.637806 -1586.092667 -1846.579252 -1846.895611 -1638.288662 -1546.726058 -1759.511524 -2114.265547 -2394.409570 -2420.797133 -2162.327256 -1829.248597 -1534.466664 -1292.683161 -1067.190661 -788.039466 -462.666794 -145.994120 263.716611 844.142135 1562.720598 2385.212388 3292.256871 4161.305383 4937.312397 5593.908031 6219.133966 6847.775648 7558.003862 8331.514014 9062.917892 9767.704363 10381.727984 11057.453958 11886.302859 12843.234111 13831.634658 14781.318589 15775.341999 17253.562796 19177.195166 20905.833504 22152.050646 -0.147224 -0.164112 -0.222176 -0.339734 -0.510288 -0.736683 -1.028718 -1.404602 -1.888914 -2.512311 -3.312168 -4.333604 -5.630660 -7.267536 -9.319829 -11.875700 -15.036915 -18.919646 -23.654964 -29.388868 -36.281735 -44.507033 -54.249125 -65.700014 -79.054844 -94.506025 -112.235871 -132.407701 -155.155474 -180.572126 -208.696977 -239.502740 -272.882843 -308.639928 -346.476428 -385.988046 -426.660734 -467.871437 -508.892697 -548.901492 -586.994293 -622.213812 -653.597810 -680.262743 -701.524851 -717.029469 -726.829191 -731.349861 -731.161515 -726.727128 -718.721597 -709.190016 -703.774682 -711.892990 -739.635199 -779.242190 -810.462005 -817.573312 -806.248880 -840.977472 -994.958667 -1284.202113 -1626.828818 -1864.454989 -1901.776125 -1806.565768 -1771.141203 -1903.443999 -2124.436010 -2279.545136 -2253.940736 -2054.058570 -1780.399218 -1524.647028 -1301.813392 -1072.314481 -802.588207 -478.917027 -104.157968 354.176214 940.723591 1665.200979 2505.511785 3405.692533 4292.764509 5103.328673 5829.990439 6512.371987 7200.760591 7928.089319 8672.333623 9399.432577 10094.404344 10781.232253 11531.781711 12384.938871 13308.761765 14261.764741 15241.670537 16367.434551 17806.620704 19536.462408 21303.309075 22604.806440 23160.145689 7554.148174 3308.344984 5528.798013 4063.865965 6128.693645 5434.228387 6980.760444 6762.553431 7885.327051 8123.643692 9303.329716 8027.107759 6835.923535 10156.523315 10992.520696 11169.019056 12154.553290 14434.396931 14310.444800 18523.933461 5116.836444 4646.566809 4689.507431 5858.688145 6656.201360 5129.606578 5538.291718 6321.385157 6262.354179 10044.246066 6609.643886 9373.728660 11851.694815 10374.759760 9567.177593 13049.527050 12741.908671 13286.626312 15105.893268 15750.437561 6703.974288 5577.571068 4617.973121 5193.534583 5107.288595 7776.692073 5780.426449 6742.589767 7233.322710 8491.147849 8925.045386 9536.884562 5643.516691 11893.717171 13366.315823 15776.024894 12213.173275 14154.736103 15872.928020 15739.840785 5260.277036 9549.549266 55320.669007 7480.653074 11943.396954 6717.269981 7612.474642 8168.085320 8664.862700 12487.866061 13521.109301 12847.933139 9634.474548 10794.732834 14800.143339 14447.761992 9490.981152 15194.425078 14426.430428 16051.551858 -6116.774037 6195.355362 8717.387673 8154.467705 7575.424154 8308.277266 45175.855038 98345.304863 8471.572738 8138.270403 9297.168326 7603.427588 8597.284901 11144.206346 9800.255817 13776.063686 11384.561768 6093.409830 16365.157314 16437.730244 2729.100990 12936.923889 6893.786307 6964.305498 77055.318892 -878.707565 4842.938490 6646.109800 10456.853416 11097.584158 1671.310627 14108.072425 12361.911686 7148.702528 12217.888838 15427.083779 13389.052118 14331.454997 16884.599880 12694.519415 6583.340893 10412.568754 11326.926698 6018.707975 11588.420035 3216.330997 3204.229737 6857.263137 9654.147738 38752.353962 -5325.925251 7850.619090 4793.379186 13527.737286 -4935.229498 24712.739107 16465.496884 14707.120947 16861.927879 16349.697129 46935.313939 8651.894228 54999.843251 4983.147454 8913.534866 46993.656452 7156.507455 6797.591484 11830.177807 93917.809703 7796.228667 3780.036766 14352.806927 4425.907815 54680.234002 12852.754399 18912.258014 11816.196224 15657.235156 13512.591481 4880.306264 152.008499 5321.651761 6474.539608 66640.188989 8380.292495 7693.525763 5956.510496 15654.407930 3172.438875 51078.728827 10545.833028 14437.727261 9556.765656 17823.849835 61237.537478 39558.777277 13761.637345 19260.778958 15106.956393 -9782.964889 11027.454378 7893.136320 11465.700455 6898.616623 43873.554169 41614.921858 109372.739806 3661.740386 4113.186004 54182.499336 47042.230141 17033.805182 34691.590489 7358.362058 17571.686135 86902.739494 15820.799159 14418.746835 20812.746218 50581.819865 107867.347988 70219.399664 5672.629991 9274.568892 6020.704929 -8187.997654 8203.657370 56719.890589 89016.409176 12369.344909 8455.390750 10114.652668 10717.966951 10468.736624 29967.954718 78197.638488 4300.524806 41763.760541 47991.219143 8586.047039 38397.186247 44922.059688 9149.494652 57140.085104 6755.573707 5435.287526 6178.456747 11253.280025 13396.500671 7068.405063 38012.269362 10171.767398 7469.296480 10386.635441 11676.020736 17889.896338 18210.872977 16494.797880 17933.163454 109323.985555 11783.404447 4983.838966 7239.404411 19695.598514 44652.618682 3614.917367 6464.638872 3413.841970 7224.283164 6202.368481 10266.261653 5051.915832 7937.203681 11572.140819 30263.023149 27826.862420 9158.866299 16691.609628 12560.653424 4109.943034 38984.793899 7108.436964 4663.920513 49668.087374 9929.634671 4761.331400 10081.459394 2927.059655 5280.196583 3979.298043 6546.672748 13257.701525 15501.700601 5333.423188 15160.860902 13422.402733 14840.492431 96511.737335 15796.497126 5030.114662 9371.632684 9353.085394 6411.707259 9291.978742 5579.927774 7197.165254 7458.525377 5605.709101 5652.235550 10908.889465 9105.242213 10686.741238 9404.240662 8335.459719 17025.203808 14378.526406 15715.985839 13342.936908 12904.654834 5415.115649 6271.548593 2867.781347 41589.099521 9680.370582 9848.626355 8682.264968 8689.441776 7615.669657 10083.605141 13682.176942 13143.585851 11218.681616 13604.252526 11097.023871 16049.417254 14711.528011 19052.669027 13526.407762 12818.620342 9035.200627 11940.753759 10329.302882 12010.154329 6148.315396 71113.174659 7263.927778 5749.983027 7529.297937 9052.703868 16964.513091 9884.522110 15852.364119 13023.963209 14260.517980 19228.491004 13349.631958 16224.791747 41244.904312 28910.496136 12769.740911 5284.226937 8686.081537 8944.568565 7551.191356 8230.180386 10700.939581 9779.175083 8459.189893 10703.160860 13041.870291 17660.980693 13636.592239 18170.140211 15413.715296 17102.756292 14822.290347 14215.837500 13099.673558 24167.440937 10757.594671 12077.064930 5018.662129 10106.682979 11984.754455 13546.926584 15357.177825 15369.661557 14393.178911 14247.665821 16742.857785 17762.244382 13864.213612 13649.516682 13549.162614 17106.291410 14468.042152 18939.712135 14876.312236 11996.455550 11795.325283 9458.015394 9639.543496 10711.763910 12542.050334 13483.157913 12534.295448 14323.272995 9606.627838 15500.716415 18500.368175 18548.069122 18258.623911 16279.862758 16195.648565 16128.502604 14858.764336 12823.533218 23997.207350 15430.143091 10384.563142 14369.950187 11221.365656 10410.959845 14715.985708 11372.295932 14271.216948 15490.425590 12705.987374 15137.067391 18061.852024 15673.120886 16991.854037 17816.130630 18179.523111 18320.396132 18204.505602 17529.554274 16438.794015 14449.483491 10952.884340 12597.461533 11253.497066 10776.131813 13264.129934 12467.664910 15609.033852 12017.833661 16691.142367 14173.304423 16474.897792 13199.473183 16040.038283 19539.223531 16971.729002 18869.789231 17597.881500 16014.323911 14251.877129 15556.158683 13598.231560 10525.702119 10993.918324 12863.363312 11732.606679 13508.133132 12184.282861 16342.121132 11691.587508 15026.371588 16466.345811 17439.013292 18038.635352 19028.838574 17976.010551 19602.102141 16875.639060 18629.354727 14491.826583 17773.459670 12375.160987 11875.854862 14407.141505 8468.125264 9467.488556 10805.960474 14027.622469 14795.583887 16990.564535 16953.361418 13962.187169 16055.800695 20067.107420 16596.452278 19518.108391 18601.351947 16148.655580 20036.924241 17111.368385 14773.344971 12824.622909 11302.069062 12975.682827 9983.753412 11807.097214 13503.920122 16472.019829 13534.677830 17990.521961 15271.195327 18260.444276 18555.632288 18793.357201 20308.023562 19068.658474 20130.069997 19151.389603 20205.896235 15699.058902 20222.318259 10699.667506 16703.180564 16893.386631 13106.136592 15622.823087 15304.516840 13369.856284 18901.646213 11130.565036 17897.839499 17369.764495 18723.570255 20144.863596 20003.430634 20095.111459 18996.176845 19818.584360 19661.850390 19363.998399 19344.885824 15485.380011 12908.830700 9368.071660 11174.162793 7597.911285 14663.104201 13731.926534 15239.667515 17410.721323 18507.536644 19378.461636 19292.318398 19275.065820 19512.330956 20309.131979 19406.906479 21244.591783 20346.740673 17185.246826 15390.934917 10761.942804 8476.733342 10692.633268 9151.243570 8932.137816 11583.608054 13051.391847 17369.564779 14397.360303 20342.371545 19505.591546 20302.577286 15773.564474 18276.668472 19370.909868 20159.716138 20030.974877 19493.113165 20187.994924 19836.529159 7640.237382 10133.151204 4424.167504 11642.223027 11932.320805 13967.642629 15568.257475 13189.692181 14426.609397 17587.553074 13333.486694 15230.799205 21203.383544 20078.342027 20308.779249 21189.037755 20545.790387 20487.449595 20317.023645 19550.413849 1272.828756 9648.633559 7319.706460 10754.126182 9399.089183 11195.903233 11283.509801 13642.367059 16938.350685 17374.234297 11336.480330 18270.737252 17917.600593 20219.941364 20633.841955 20522.875586 19759.300851 20359.136430 15992.268134 18518.201787 1593.105517 5189.569612 1895.369482 7633.688504 9126.735981 12677.946842 10884.175265 10027.448248 12687.738616 18046.640432 16647.964951 16806.069270 16877.182804 18410.207061 20020.925193 21013.174699 21831.228381 20460.358531 19346.075349 18026.890018 2171.543533 2421.430454 2719.139898 6113.713337 7079.031122 6576.506579 15825.440142 9614.150485 13783.189371 14253.208618 16298.466050 12176.366678 15042.785982 18690.716127 19298.165393 20202.445255 22099.366532 20000.084507 20238.435296 21187.813249 1753.789483 1659.041821 2024.102738 4159.384245 5135.229431 12327.451127 8207.043184 9420.912464 14565.945628 17281.727651 16018.905744 17757.744889 21925.508453 19311.927243 20926.071080 21866.047659 21048.984170 20079.359952 18946.222800 19370.388417 1329.624587 4785.409675 3509.033920 3634.573620 5213.369627 11000.758067 10278.365005 14083.800363 14192.671630 13594.709673 15625.669764 18893.233839 15813.181937 18138.136202 20541.926327 19994.421662 19643.769976 20261.348361 20346.661815 20347.745919 2120.903648 1573.196451 2019.310499 4852.553689 4889.401728 10066.503947 7542.152230 7757.082729 17867.799241 18129.632755 19649.813664 21215.011934 15361.256865 21407.132404 22760.218195 23591.294207 19954.462225 22730.859684 21029.012443 20167.823950 1949.451097 2180.427706 2419.406644 5773.297386 5770.107016 8457.911505 9232.389408 8907.355259 10034.479754 14178.696968 17224.929341 17911.733446 21554.109896 19540.250054 19340.070003 22842.569216 22007.360335 22948.330807 20082.443305 201