<VTKFile type="PolyData">
<PolyData>
<Piece NumberOfPoints="6715" NumberOfVerts="6715" NumberOfLines="0" NumberOfStrips="0" NumberOfPolys="0">
<PointData>
<DataArray type="Float64" Name="Pressure" format="ascii">
 18896.662339 18070.827199 17957.086793 18561.318453 19579.125235 19690.038688 18990.688024 17221.973740 15451.612013 14985.920723 13976.745585 10980.325378 8303.649194 6750.724380 6818.840937 2420.042767 -11932.840355 -12277.730386 9086.891466 19148.116450 2097.156294 3496.453965 9250.034278 8930.019380 7978.335971 8068.161120 10265.038010 12100.782252 13104.399081 13815.008938 13320.902244 11271.828762 9334.687699 12559.002756 14041.863070 14065.069225 12941.168560 12788.616935 14236.668542 16080.564067 15772.344824 14544.184844 14054.501640 14528.953819 15461.117047 15657.789055 15340.898700 16153.378569 16801.792897 18295.443370 18675.725870 18640.681519 18883.488121 18700.364608 18304.573241 17361.983750 16641.093598 16539.540815 16627.794768 17599.667155 17788.661300 17809.901763 17266.100338 16709.048130 16896.298959 16785.703550 16633.952841 16654.703543 17661.487852 18237.242270 18247.350919 17788.379216 17851.537500 17446.227734 16999.904826 17009.774937 16876.676563 17289.551456 18518.787778 19209.060494 19192.169331 19180.361695 18767.396866 18250.488087 18392.885814 18810.666653 18510.297115 17936.567232 17827.330345 17805.973240 17775.493089 17848.029244 17625.351101 17216.210983 17195.382027 17366.251916 17673.425636 18115.944000 18772.426918 18816.652008 18466.998200 17671.565305 17200.000600 16977.520716 17735.577482 18184.216152 18414.165145 19086.981256 19520.220002 19763.969891 19572.771853 19137.916919 18934.416036 18838.088560 19155.725114 19837.863619 19651.891525 19378.707677 19018.630460 19372.293330 20159.546412 19952.177203 19052.267469 18311.111052 18048.704179 18352.416104 18344.169918 18603.105316 18452.555923 17644.433625 16565.497616 16647.464278 17163.601139 17378.462407 16933.555071 16817.178751 16806.458160 16870.660219 16955.596482 17796.497264 18048.219933 16952.514849 15318.951297 13184.286082 13924.113853 14968.525584 15647.326733 15952.921633 15879.791299 15409.702153 14565.174978 14087.752779 13894.362771 14006.088509 14240.624607 14330.783588 14378.478086 14302.963225 14111.325360 14010.250815 13967.143366 13968.031730 13823.331567 13788.601176 13818.455950 13820.806327 13690.952254 13252.306483 12732.183290 12477.727812 12548.754544 12471.169721 12463.913460 12302.098983 12129.218392 11886.519288 11658.744681 11683.187964 11726.103845 11535.843715 11420.398664 11354.815016 11507.479531 11324.432217 10948.967049 10860.351717 10967.446547 10855.160886 10529.229663 10447.250434 10494.433979 10317.970023 10150.586273 10032.388447 9631.452802 9354.558344 9391.276526 9505.935398 9562.921710 9607.604031 9748.795257 20175.045625 19635.101072 18848.406609 18662.285056 19177.923608 19381.535212 18892.245146 18237.572971 17318.022639 16292.014970 15851.695262 14773.460870 12314.282909 9190.649693 5808.834631 3790.583901 4012.993834 5045.345756 3657.865555 2590.738679 1633.396340 4848.957001 10858.761784 12603.754351 11573.957191 10061.966653 9804.267525 11050.377653 12288.226623 13133.524062 13613.304659 12618.996828 11050.191093 11381.162349 13359.648645 14612.078992 14675.012953 13921.817237 13657.365410 14383.158873 15227.211239 15523.517532 15255.576569 15018.748691 15279.407554 15670.747153 15845.561020 16162.939040 16644.995236 17315.480232 18077.783303 18668.582367 18612.135050 18270.833409 18230.681221 17717.401489 17366.191173 17207.834350 16787.205247 16721.490379 17137.548783 17655.498967 17980.904164 17786.959822 17491.693854 17305.094625 17281.713587 17422.095503 17700.754181 18032.171883 18190.381094 18214.710783 18130.319883 17985.672748 17960.997986 17886.204424 17978.182260 18188.604578 18205.605626 18649.557801 19281.414876 19382.408585 19160.614854 18749.299780 18259.407972 18307.988137 18617.437980 18420.165393 18082.523165 18013.418179 18018.568898 17959.214830 17957.787304 17961.529509 17766.540637 17696.174686 17881.834047 18021.206237 18316.107492 18733.540521 18953.372509 18791.531414 18469.603752 18180.591879 18069.690654 18191.608975 18521.251286 18850.367050 19360.653057 19737.570567 19639.280215 19366.119209 19217.737812 19065.305980 19096.207667 19243.962990 19574.735062 19745.458735 19437.109809 19274.912171 19471.374315 19646.093783 19487.448054 18913.721231 18422.499719 18261.538662 18156.284934 18114.028895 18187.433869 17983.581459 17437.222319 16988.971012 17294.090579 17500.572664 17323.853531 16981.552256 16627.407378 16415.851232 16394.572294 16346.766252 16512.151565 16866.420175 16247.303957 14850.841470 14149.897920 14473.766449 14912.109018 15132.635534 15186.293452 15169.587941 14786.575585 14232.033064 13848.030752 13673.106922 13738.585508 14026.770987 14268.161008 14297.098856 14129.491242 13950.298772 13774.260905 13562.714589 13501.751154 13522.974921 13526.537638 13564.864659 13632.652295 13492.459893 13088.756422 12670.464432 12439.519049 12449.590951 12486.095437 12369.509977 12143.751702 11911.669692 11728.444379 11623.322773 11521.916529 11472.737367 11350.794167 11199.781631 11254.410986 11310.691835 11108.082373 10873.801932 10814.213162 10767.809818 10662.869789 10616.246398 10602.424298 10491.878978 10303.811255 10170.301718 10006.917876 9753.920043 9605.496039 9637.175804 9726.695931 9831.233304 9942.921315 10081.732104 10227.219429 20468.304069 20357.624157 20040.323580 19615.784131 19441.021647 19606.981368 19574.916502 19083.063437 18353.190908 17480.323794 16604.069485 15831.781504 14759.973428 12952.326599 10031.521339 6218.137618 2824.465230 1939.413176 4013.798831 6957.623707 8368.134180 9837.266485 12348.325727 13543.427274 13112.165812 12274.492592 11577.154586 11472.938147 11850.735370 12326.317532 12724.773260 12920.834966 12702.943443 12415.133106 12962.409820 13955.777300 14718.060832 14848.360568 14631.960651 14564.691730 14879.607307 15271.593457 15465.222873 15461.155606 15445.397604 15646.064308 15938.153972 16220.887233 16585.378957 16995.051389 17508.109581 17979.639311 18371.593221 18487.457569 18444.547555 18358.583552 18082.657887 17830.711711 17658.850754 17432.561635 17361.318720 17534.279213 17874.025079 18068.253415 18000.037038 17826.990554 17757.353666 17831.125117 17969.698261 18146.831701 18241.045938 18296.711155 18311.546251 18251.977601 18130.271875 18097.483372 18129.575816 18268.483334 18478.879181 18618.291572 18823.146733 19145.072109 19280.628910 19109.246723 18771.802539 18435.695555 18284.346551 18258.446418 18171.783919 18046.273398 17981.786753 17970.557399 17963.234948 17969.561680 17956.835840 17929.259991 17967.756407 18073.522615 18203.016543 18383.715403 18569.769057 18656.751693 18604.369099 18467.117102 18356.208446 18360.415852 18471.302466 18722.262091 19075.484205 19472.873268 19775.765502 19754.199934 19589.756492 19474.674154 19395.872901 19393.593936 19491.084871 19651.191377 19752.558627 19694.145747 19642.547070 19601.078479 19484.743472 19228.856711 18849.989570 18494.423200 18263.452321 18105.666463 18012.180378 17911.616233 17733.612009 17473.082166 17294.999216 17298.772263 17264.216487 17029.978421 16739.951833 16446.179776 16248.453317 16132.530252 16052.269809 16026.204974 15977.110854 15605.228984 14970.472079 14651.147448 14682.640689 14846.719466 14924.835839 14867.043555 14698.348883 14394.465182 14051.325191 13776.394929 13636.354093 13649.063932 13786.630304 13946.372949 13975.561168 13874.770290 13749.675485 13622.415745 13491.084643 13406.829902 13384.959883 13357.265600 13347.824571 13341.683607 13189.512442 12875.757502 12554.149959 12338.876129 12256.493345 12220.888038 12102.935898 11939.705940 11766.159008 11622.884014 11518.625229 11415.766956 11323.883031 11223.237876 11143.448984 11132.077720 11096.161165 10970.508273 10817.629309 10718.593607 10630.396871 10546.296037 10508.611916 10461.249079 10345.787288 10214.800085 10093.716052 9954.981065 9826.244547 9751.709590 9757.986093 9840.625044 9960.858401 10093.213418 10236.323222 10367.144936 10435.324191 9748.795257 9083.318188 8146.021055 7431.632744 7012.809539 6550.197570 5933.551243 5359.318856 4713.479490 4015.417847 3520.666409 3113.509408 2722.361999 2354.807029 2138.178465 1958.059815 1619.195743 1226.663719 1318.219636 1478.697703 1726.423724 2136.721525 2338.349478 2436.324400 2457.221909 2421.903331 2342.776206 2231.116113 2097.318638 1950.520653 1798.441191 1647.220031 1501.378075 1363.932493 1236.618456 1120.159197 1014.538339 919.244565 833.473453 756.282312 686.700804 623.803684 566.753317 514.819529 467.383563 423.931769 384.043437 347.376030 313.650056 282.634994 254.137046 227.989036 204.042478 182.161622 162.219218 144.093690 127.667406 112.825774 99.456930 87.451813 76.704474 67.112512 58.577540 51.005625 44.307676 38.399732 33.203173 28.644826 24.656987 21.177362 18.148940 15.519805 13.242907 11.275803 9.580364 8.122481 6.871753 5.801190 4.886907 4.107843 3.445480 2.883591 2.407992 2.006323 1.667843 1.383239 1.144458 0.944553 0.777545 0.638296 0.522406 0.426106 0.346179 0.279875 0.224846 0.179080 0.140825 0.108480 0.080225 0.054528 0.041648 10227.219429 9890.594961 9261.995732 8459.420594 7790.555482 7290.339037 6766.889664 6184.544623 5604.259562 5025.028328 4443.892702 3934.051516 3485.555863 3094.909723 2744.131823 2450.265749 2198.337531 1979.198869 1802.466022 1802.190828 1885.435407 2040.681455 2223.817327 2367.310529 2445.911730 2461.692881 2424.546905 2344.444847 2232.178784 2097.930399 1950.770385 1798.407805 1646.979705 1501.000197 1363.475772 1236.129042 1119.670707 1014.073192 918.815975 833.087590 755.940332 686.400574 623.541166 566.523594 514.617529 467.204520 423.771482 383.898387 347.243390 313.527643 282.521179 254.030657 227.889258 203.948761 182.073606 162.136666 144.016440 127.595334 112.758767 99.394870 87.394564 76.651880 67.064393 58.533695 50.965837 44.271712 38.367349 33.174123 28.618860 24.633859 21.156831 18.130774 15.503781 13.228816 11.263448 9.569562 8.113062 6.863563 5.794086 4.880762 4.102540 3.440916 2.879671 2.404634 2.003454 1.665397 1.381159 1.142694 0.943061 0.776285 0.637236 0.521517 0.425364 0.345562 0.279367 0.224436 0.178773 0.140668 0.108665 0.081591 0.058885 0.044392 0.038431 10435.324191 10302.605770 9935.092992 9338.466122 8663.160423 8017.504800 7437.626532 6881.330743 6316.040928 5741.437189 5169.115415 4617.811331 4110.492729 3656.133156 3254.769974 2902.479522 2596.590864 2335.721674 2126.260989 1992.323124 1962.881946 2022.330987 2137.892768 2271.769796 2383.525455 2448.856735 2461.214988 2423.245950 2343.174239 2231.224326 2097.349004 1950.529853 1798.444075 1647.220946 1501.378365 1363.932584 1236.618485 1120.159206 1014.538342 919.244566 833.473453 756.282312 686.700804 623.803684 566.753317 514.819529 467.383563 423.931769 384.043437 347.376030 313.650056 282.634994 254.137046 227.989036 204.042478 182.161622 162.219218 144.093690 127.667406 112.825774 99.456930 87.451813 76.704474 67.112512 58.577540 51.005625 44.307676 38.399732 33.203173 28.644826 24.656987 21.177362 18.148940 15.519805 13.242907 11.275803 9.580364 8.122481 6.871753 5.801190 4.886907 4.107843 3.445480 2.883591 2.407992 2.006323 1.667843 1.383239 1.144458 0.944553 0.777545 0.638296 0.522406 0.426107 0.346181 0.279881 0.224868 0.179151 0.141059 0.109251 0.082845 0.061770 0.046616 0.038947 0.036697 0.041648 0.035616 0.026832 0.020713 0.016179 0.012665 0.009905 0.007730 0.006017 0.004670 0.003614 0.002788 0.002145 0.001645 0.001258 0.000958 0.000728 0.000551 0.000416 0.000313 0.000235 0.000175 0.000131 0.000097 0.000072 0.000053 0.000039 0.000028 0.000021 0.000015 0.000011 0.000008 0.000006 0.000004 0.000003 0.000002 0.000001 0.000001 0.000001 0.000000 0.000000 0.000000 0.000000 0.000000 0.000000 0.000000 0.000000 0.000000 0.000000 0.000000 0.000000 0.000000 0.000000 0.000000 0.000000 0.000000 0.000000 0.000000 0.000000 0.000000 0.000000 0.000000 0.000000 0.000000 0.000000 0.000000 0.000000 0.000000 -0.000000 0.000000 0.000000 0.000000 0.000000 0.000000 0.000000 0.000000 0.000000 0.000000 0.000000 0.000000 0.000000 0.000000 -0.000000 0.000000 0.000000 0.000000 0.000000 0.000000 0.000000 0.000000 0.000000 0.000000 0.000000 0.000000 0.000000 0.000000 0.000000 0.000000 -0.000000 0.000000 0.000000 -0.000000 -0.000000 -0.000000 -0.000000 -0.000000 -0.000000 -0.000000 -0.000000 -0.000000 -0.000000 -0.000000 -0.000000 -0.000000 -0.000000 -0.000000 -0.000000 -0.000000 -0.000000 -0.000000 -0.000000 -0.000000 -0.000000 -0.000001 -0.000001 -0.000001 -0.000002 -0.000002 -0.000003 -0.000004 -0.000006 -0.000008 -0.000010 -0.000014 -0.000018 -0.000025 -0.000033 -0.000044 -0.000058 -0.000077 -0.000102 -0.000135 -0.000177 -0.000233 -0.000305 -0.000398 -0.000519 -0.000675 -0.000875 -0.001131 -0.001460 -0.001879 -0.002412 -0.003089 -0.003946 -0.005028 -0.006391 -0.008103 -0.010248 -0.012928 -0.016268 -0.020420 -0.025568 -0.031933 -0.039783 -0.049438 -0.061282 -0.075774 -0.093456 -0.114976 -0.141094 -0.172711 -0.210880 -0.256835 -0.312017 -0.378098 -0.457019 -0.551017 -0.662670 -0.794931 -0.951177 -1.135250 -1.351513 -1.604892 -1.900938 -2.245877 -2.646665 -3.111046 -3.647602 -4.265812 -4.976098 -5.789881 -6.719644 -7.779065 -8.983346 -10.350260 -11.903597 -13.684462 -15.799881 -18.441570 -20.101503 0.038431 0.036827 0.032067 0.025754 0.020385 0.016056 0.012608 0.009872 0.007707 0.005999 0.004657 0.003603 0.002780 0.002139 0.001640 0.001254 0.000955 0.000726 0.000550 0.000415 0.000312 0.000234 0.000175 0.000130 0.000096 0.000071 0.000053 0.000039 0.000028 0.000020 0.000015 0.000011 0.000008 0.000005 0.000004 0.000003 0.000002 0.000001 0.000001 0.000001 0.000000 0.000000 0.000000 0.000000 0.000000 0.000000 0.000000 0.000000 0.000000 0.000000 0.000000 0.000000 0.000000 0.000000 0.000000 0.000000 0.000000 0.000000 0.000000 0.000000 0.000000 0.000000 0.000000 0.000000 0.000000 0.000000 0.000000 0.000000 0.000000 -0.000000 -0.000000 0.000000 0.000000 0.000000 0.000000 -0.000000 0.000000 0.000000 0.000000 -0.000000 -0.000000 0.000000 0.000000 -0.000000 -0.000000 0.000000 0.000000 0.000000 -0.000000 0.000000 0.000000 0.000000 0.000000 -0.000000 0.000000 0.000000 0.000000 0.000000 -0.000000 -0.000000 -0.000000 0.000000 -0.000000 -0.000000 -0.000000 -0.000000 -0.000000 -0.000000 -0.000000 -0.000000 -0.000000 -0.000000 -0.000000 -0.000000 -0.000000 -0.000000 -0.000000 -0.000000 -0.000000 -0.000000 -0.000000 -0.000000 -0.000000 -0.000000 -0.000001 -0.000001 -0.000001 -0.000002 -0.000002 -0.000003 -0.000004 -0.000006 -0.000007 -0.000010 -0.000014 -0.000018 -0.000024 -0.000033 -0.000044 -0.000058 -0.000077 -0.000102 -0.000134 -0.000177 -0.000232 -0.000304 -0.000397 -0.000517 -0.000673 -0.000872 -0.001128 -0.001456 -0.001874 -0.002406 -0.003081 -0.003936 -0.005015 -0.006375 -0.008083 -0.010224 -0.012898 -0.016231 -0.020375 -0.025513 -0.031866 -0.039701 -0.049339 -0.061163 -0.075629 -0.093282 -0.114767 -0.140845 -0.172413 -0.210526 -0.256416 -0.311522 -0.377515 -0.456334 -0.550215 -0.661733 -0.793841 -0.949912 -1.133787 -1.349825 -1.602952 -1.898714 -2.243336 -2.643771 -3.107760 -3.643884 -4.261615 -4.971369 -5.784545 -6.713567 -7.771908 -8.974115 -10.335798 -11.873498 -13.603666 -15.531946 -17.590981 -19.085191 -19.644614 0.036697 0.036355 0.034377 0.030118 0.025043 0.020179 0.016017 0.012616 0.009890 0.007726 0.006015 0.004669 0.003614 0.002788 0.002145 0.001645 0.001258 0.000958 0.000728 0.000551 0.000416 0.000313 0.000235 0.000175 0.000131 0.000097 0.000072 0.000053 0.000039 0.000028 0.000021 0.000015 0.000011 0.000008 0.000006 0.000004 0.000003 0.000002 0.000001 0.000001 0.000001 0.000000 0.000000 0.000000 0.000000 0.000000 0.000000 0.000000 0.000000 0.000000 0.000000 0.000000 0.000000 0.000000 0.000000 0.000000 0.000000 0.000000 0.000000 0.000000 0.000000 0.000000 0.000000 0.000000 0.000000 0.000000 0.000000 0.000000 0.000000 0.000000 -0.000000 0.000000 0.000000 0.000000 0.000000 0.000000 0.000000 0.000000 0.000000 0.000000 0.000000 -0.000000 0.000000 0.000000 -0.000000 0.000000 0.000000 0.000000 0.000000 0.000000 0.000000 0.000000 0.000000 0.000000 -0.000000 0.000000 0.000000 0.000000 0.000000 -0.000000 -0.000000 0.000000 -0.000000 -0.000000 -0.000000 -0.000000 -0.000000 -0.000000 -0.000000 -0.000000 -0.000000 -0.000000 -0.000000 -0.000000 -0.000000 -0.000000 -0.000000 -0.000000 -0.000000 -0.000000 -0.000000 -0.000000 -0.000000 -0.000000 -0.000000 -0.000001 -0.000001 -0.000001 -0.000002 -0.000002 -0.000003 -0.000004 -0.000006 -0.000008 -0.000010 -0.000014 -0.000018 -0.000025 -0.000033 -0.000044 -0.000058 -0.000077 -0.000102 -0.000135 -0.000177 -0.000233 -0.000305 -0.000398 -0.000519 -0.000675 -0.000875 -0.001131 -0.001460 -0.001879 -0.002412 -0.003089 -0.003946 -0.005028 -0.006391 -0.008103 -0.010248 -0.012928 -0.016268 -0.020420 -0.025568 -0.031933 -0.039783 -0.049438 -0.061282 -0.075774 -0.093456 -0.114976 -0.141094 -0.172711 -0.210880 -0.256835 -0.312017 -0.378098 -0.457019 -0.551017 -0.662670 -0.794931 -0.951177 -1.135250 -1.351513 -1.604892 -1.900938 -2.245877 -2.646665 -3.111045 -3.647599 -4.265802 -4.976064 -5.789769 -6.719278 -7.777869 -8.979439 -10.337492 -11.861862 -13.548371 -15.349022 -17.102827 -18.527475 -19.230232 -19.393576 -20.101503 -22.696781 -27.582148 -32.512439 -37.633099 -43.084498 -48.920522 -55.174125 -61.870752 -69.032208 -76.677513 -84.822859 -93.481294 -102.662325 -112.371508 -122.610046 -133.374406 -144.655972 -156.440727 -168.708984 -181.435168 -194.587648 -208.128638 -222.014154 -236.194048 -250.612125 -265.206341 -279.909117 -294.647785 -309.345213 -323.920679 -338.291119 -352.372915 -366.084523 -379.350309 -392.105979 -404.305753 -415.930583 -426.994974 -437.546986 -447.652365 -457.351085 -466.576447 -475.037691 -482.098444 -486.751057 -487.729138 -483.313501 -471.448097 -451.847008 -430.335228 -418.038527 -420.026701 -411.899024 -156.651003 -87.106012 -148.022809 -335.117591 -479.985316 -514.915875 -843.993888 -800.686014 -692.522794 -710.273181 -870.650840 -1769.711689 -1812.594598 -327.676368 177.404492 235.793948 -248.216718 47.625286 -28.025707 -269.311027 -354.897081 -302.452416 1290.505558 2518.129980 1495.410134 -2389.378818 -7689.814088 -9570.500533 -7013.721701 -2853.276768 -868.618543 1063.265624 2633.862389 4907.481005 6407.864179 7306.099269 8468.573559 9743.500755 12991.983408 15993.907294 16695.350967 16075.526308 15896.214787 16696.893942 17373.349832 18148.105764 18896.662339 -19.644614 -20.821598 -23.653804 -27.893575 -32.584632 -37.642420 -43.074284 -48.903667 -55.154538 -61.849683 -69.010115 -76.654625 -84.799350 -93.457334 -102.638097 -112.347212 -122.585897 -133.350637 -144.632830 -156.418470 -168.687882 -181.415498 -194.569693 -208.112681 -222.000477 -236.182931 -250.603837 -265.201138 -279.907234 -294.649431 -309.350556 -323.929836 -338.304123 -352.389686 -366.104809 -379.373614 -392.131474 -404.332211 -415.956415 -427.018500 -437.567131 -447.669937 -457.370623 -466.608275 -475.099274 -482.210470 -486.921813 -487.995787 -484.025034 -473.235528 -455.324327 -435.232701 -424.652684 -429.924964 -444.343750 -419.399662 -441.657668 -596.452902 -675.615950 -696.608663 -847.074878 -886.485335 -760.475897 -697.685463 -726.377798 -853.766027 -1113.188354 -1281.643417 -773.586222 -213.711427 -386.242789 -659.547828 -583.692092 -508.916215 -480.719915 -346.032809 -161.033111 32.605513 278.692269 -255.698502 -1917.125175 -4005.032559 -4827.055560 -3516.687620 -1569.833354 34.899683 1651.280597 3236.111942 5034.239315 6853.854056 8221.019637 9162.798747 10452.981881 12945.933660 15370.659795 16722.966501 17311.569989 17540.869876 17692.710174 18163.346212 18987.186085 19697.505664 20175.045625 -19.393576 -19.832478 -21.339877 -24.263233 -28.143234 -32.680456 -37.684704 -43.100287 -48.925355 -55.175605 -61.871205 -69.032347 -76.677555 -84.822872 -93.481298 -102.662326 -112.371508 -122.610046 -133.374406 -144.655972 -156.440727 -168.708984 -181.435168 -194.587648 -208.128638 -222.014154 -236.194048 -250.612125 -265.206341 -279.909117 -294.647785 -309.345213 -323.920679 -338.291119 -352.372915 -366.084523 -379.350309 -392.105980 -404.305754 -415.930588 -426.994989 -437.547033 -447.652509 -457.351517 -466.577821 -475.042035 -482.107344 -486.758727 -487.811920 -484.097655 -474.269215 -458.259970 -440.945487 -432.145353 -439.061222 -460.219075 -496.717376 -563.548225 -667.961919 -731.212144 -766.572290 -810.943628 -786.424942 -725.910668 -695.377412 -723.176819 -809.649425 -897.244852 -863.863527 -641.752227 -423.714164 -434.789129 -525.810886 -557.851491 -548.972341 -491.111378 -343.733915 -99.798029 118.285569 73.560651 -487.871448 -1466.978108 -2425.478611 -2625.925496 -1750.550651 -356.510441 1066.466078 2455.145919 3898.444640 5438.309553 7014.708708 8434.465442 9686.270561 11159.990135 13122.155965 15007.552431 16442.467248 17358.495484 17869.811354 18262.411163 18806.431019 19454.716804 20013.806394 20354.022723 20468.304069 11262.266986 2621.138289 8316.042053 4281.715667 4641.555585 1620.371757 6445.026052 6014.858608 6365.498637 6128.011527 9405.225264 4446.437473 7352.354998 14856.023379 13701.867492 8186.584845 15426.470240 16940.931874 16714.767027 17662.780908 4773.626256 -1680.974904 4398.940297 7281.109703 4982.571348 8728.802516 3459.475768 6611.313362 6170.924355 9973.610098 6346.787597 13592.536013 9554.646062 7140.941584 7068.748465 14750.974814 12121.722714 14210.429668 15969.327004 18773.782238 8801.171293 5706.214794 2289.204138 5268.631178 5277.578938 8061.644845 5115.980675 6217.600578 9524.512442 7197.823604 6362.992851 6574.842626 7973.436498 15556.500949 13214.529021 17834.393063 17108.103217 14504.683156 17148.960514 15848.698233 3550.952988 9548.564298 40899.961778 4640.923933 15406.948483 4689.398927 5062.758123 6310.974048 6993.415412 14986.675810 14943.950508 3423.070892 7135.177226 11812.883518 13336.739114 17228.557758 13341.335845 16262.767958 19247.276261 19829.922599 6241.772100 9207.934793 6083.109665 11832.192466 8565.449825 12026.831738 -32492.450130 35004.570911 9576.723942 6292.000906 16104.912596 8835.357574 7830.651186 8523.142456 8725.506434 15066.563031 8822.615665 2965.895083 19494.888270 19511.158013 6375.492615 17268.586232 4062.651568 7440.562432 7416.549011 967.737461 5392.380897 2912.266291 11164.489772 12868.611622 4679.575579 8167.745940 14916.402777 10403.105164 6823.062982 19119.821956 12654.075721 12430.794357 14984.826121 14379.455151 7715.376927 7515.042809 7107.058265 8165.031165 13688.639503 29594.227455 6257.755462 8819.636116 -3512.255792 9372.592614 1105.786647 7506.370719 8443.843235 16216.451371 9960.732582 -4658.542481 14095.249093 17367.913096 14069.792496 18137.529198 -17018.046579 6884.522750 -30577.327775 4819.740120 5235.740558 2611.279101 -15472.107691 12854.394927 10823.013013 6379.131364 7551.419063 4784.440073 13569.476405 7987.889234 4762.610875 10740.954179 4388.204344 8876.224374 6425.126784 16420.825883 5083.685457 9247.322370 6560.453635 8103.566788 -32218.378286 5297.920426 9998.974181 8555.909586 9361.938162 7060.745880 -10467.889637 9924.039635 11762.649294 6967.809887 13512.227177 7695.461385 6414.019904 10505.529116 12429.600291 19640.069622 5030.556720 8550.819496 4990.872038 11859.997297 11425.758575 -31950.121678 -23792.386898 7888.104652 5696.876533 5919.809966 5618.921691 17038.020671 9630.657353 -15979.270914 4623.705016 7004.402974 4099.332652 6115.004630 7813.956658 7105.952395 745.554090 6068.393961 46951.640210 5228.329967 5485.833557 4910.539165 2236.090831 5373.184403 41793.749173 6081.891845 7476.945848 5932.141067 14219.379884 10138.446175 5824.761675 -11687.798322 17899.753449 9151.075482 6231.279919 9207.159303 6830.760393 -31277.408877 -31803.790656 7925.805173 5310.064984 4641.464236 4798.411780 8110.686921 8105.417234 9823.531733 8279.635508 -31657.440881 5607.896448 5088.160407 7223.232875 8506.041163 5056.169142 6942.412963 12448.500212 24882.316186 2137.768979 8767.662519 4130.417588 7528.037618 2544.280039 43117.657500 5737.417420 6446.054654 6584.372462 6780.001967 3725.994382 6601.940384 6276.316873 4560.996486 11954.046644 6288.658636 44155.991268 10948.731419 12512.135276 12588.296202 5457.345925 5839.309006 6603.112228 5667.771657 7147.341752 8874.877496 8354.257727 7111.763666 5712.308166 5121.409778 2959.588186 5541.841092 6512.860461 12892.646186 5711.083880 7819.693482 11881.828237 12803.490947 -23276.737792 8182.767119 3748.224998 7667.474076 7537.372504 9351.235285 8649.147099 3435.614645 8736.938531 7677.277209 8465.531447 4147.958994 7934.226166 8464.930719 5900.083811 8706.841529 5284.756578 11771.920640 11808.875524 12059.165929 8792.539273 15689.490484 4060.048059 7920.865133 6535.263937 -28248.248263 6531.791046 7509.567980 7173.126607 5188.604385 6344.269934 7569.030375 8306.341706 9186.484053 -10674.572721 6366.533565 9900.842222 8686.082734 14542.639285 5697.542734 6394.761956 13198.960619 6404.555678 9750.781294 13212.000105 7871.802565 5539.285775 -27785.211704 6821.063793 5720.900740 8581.174321 7036.076226 15281.527572 8952.788602 10659.951389 11212.452735 9010.717502 12917.338902 10821.264643 2211.475383 -1086.356221 34978.135684 9650.332015 5783.268479 5809.177070 5917.534607 6394.302401 6812.267018 11990.832753 10690.462706 11437.810432 8708.629188 6989.421730 13827.278409 6609.303074 13044.492411 11209.911879 13178.975816 8890.326569 11179.795514 11080.555548 -8802.084694 11588.493307 10208.503910 4865.325710 11182.066925 12068.136494 13415.497297 11415.995278 14189.704124 10196.396724 7898.506364 9552.813765 13405.015167 9721.967961 13031.406273 9261.833777 9724.981646 11202.778109 12848.605454 10497.005696 9442.857758 9855.842835 7877.585788 9043.484475 10062.482105 10324.162378 7648.334879 11045.221753 7648.035969 7515.827880 11382.972929 14945.789392 13287.982452 13578.857356 9775.562825 13796.464505 11835.142778 11410.104405 6232.788862 38494.746429 5655.937051 9341.439915 7865.060574 8883.510111 9251.777387 7957.162982 9219.008044 13766.401635 10722.286249 9505.212690 8191.371609 15653.073473 9076.424196 11916.130117 9660.658893 12499.511935 12315.575790 14374.324614 15049.338603 11784.895677 6133.403457 11882.857021 8770.331549 11232.416267 6854.659960 7432.465521 9325.021880 10726.300321 8939.109361 11131.195461 8458.564989 10980.969443 11754.447920 8620.445905 13923.440289 10863.413202 15372.826818 13315.956695 10437.025072 8455.058209 7374.551113 9891.743728 6273.887707 6850.601384 6890.619584 8370.635614 6988.840453 6939.112099 9565.445550 7002.505232 7340.941256 13230.710624 9542.631547 11011.064122 15312.481239 13820.779195 15048.223824 16645.698162 14144.166864 6957.868657 13863.752410 9900.850864 7628.393222 8299.772773 5430.860366 7528.869971 5291.285041 9302.137423 12158.826251 11926.339567 8057.732360 8638.860784 8518.124366 16145.689714 10141.048739 13784.158355 13628.786108 11749.442574 15197.313733 9735.269430 9521.058025 7922.533940 10865.034516 7518.875440 8132.172392 11022.321293 8162.406149 11785.060642 8396.999090 9935.702729 10818.695493 11444.306958 10566.049808 14595.725383 16122.590922 14652.454798 17164.028958 14134.506226 12866.778691 12597.513742 12551.466646 7429.382527 12060.466658 11030.688926 9907.339842 10535.782572 10990.501509 8994.874200 12149.437490 8406.714517 12382.599430 12490.056524 11916.387315 16675.081198 13974.216332 12307.310702 11361.345249 14440.679130 9970.005197 12883.341763 11737.497409 13751.284537 11437.430141 7150.495911 9160.574113 5948.600519 11376.285325 10715.034821 9502.769283 12636.486261 15274.494101 13493.376738 12853.336053 13554.430607 14481.116584 11079.061093 14654.813324 17150.750442 16381.542575 13898.478305 11506.373629 8122.992290 5578.290768 8853.058205 7683.580813 6071.292245 6486.665104 10178.369545 11579.847428 12902.325587 12971.889516 13412.653003 10549.909924 9710.912056 12290.613138 13333.751752 18227.329824 14081.640427 14226.352029 12588.153529 12910.035589 5089.040104 7380.510954 3345.790328 9783.909497 10352.352500 10052.506755 8834.813634 9107.212597 7613.707096 14313.500300 9363.357417 11111.783074 14416.149819 16647.173817 14293.905535 13995.359328 14044.113602 18335.525803 15541.836460 12383.411970 787.707972 6112.649727 4320.802045 6455.811078 8046.283260 9541.707246 7125.987869 8773.633998 8115.121272 10563.685350 9491.035938 13237.362968 8908.640398 14757.441148 15711.137606 16504.070286 13101.013649 17560.358200 13305.845230 10176.944219 229.661955 1517.187025 -753.072764 5217.504919 3769.347803 7175.032286 8525.947518 9115.562873 7575.584380 9909.808814 8924.024525 7935.534101 11371.307959 11244.951001 12960.594107 14897.092685 12122.465015 14700.986428 9364.250501 16248.568002 353.662748 2181.657113 -150.323440 1914.947681 7525.193870 4568.755019 8589.445956 6090.068665 8074.623626 8029.334510 7743.596418 7397.829717 9197.677498 14490.534481 11892.216689 15414.793566 11690.243833 18247.629404 9358.423597 14675.691376 324.101985 328.366401 1235.146889 644.187006 1886.450067 7082.850625 5143.607596 6621.548023 7538.565013 8888.249514 7114.387479 9607.335460 16129.365629 10058.028661 12102.534583 14498.102295 14062.706415 12559.052741 12970.188862 12168.328535 191.770017 836.700169 1453.628904 876.150198 3168.257056 6352.578691 5450.435256 7538.603199 8387.341832 6528.504325 8469.401093 9282.008237 7769.481884 8806.131973 12452.118509 11972.804330 12217.274678 17182.524216 13247.958039 13493.112229 556.614627 1228.227205 -1083.417287 803.570960 3589.452556 5072.776757 5118.325493 5982.621049 9584.639859 8380.203822 9800.246635 10873.123906 8943.423018 13619.162418 14759.084138 16713.686872 18712.650075 18675.532413 12242.014677 11005.679515 1436.289782 1270.921018 1063.016063 3337.425852 4549.028192 3308.899601 4295.872392 4544.359714 5423.927753 6014.754223 8806.002669 9538.926843 12172.089795 9965.202475 10005.036333 14845.505964 16996.254270 16791.944221 13129.884120 12709.411259 4935.041007 1062.418855 153.094637 374.767727 4396.710490 4062.600794 4168.725253 5494.754677 8462.201545 6610.918751 8654.969379 934