<VTKFile type="PolyData">
<PolyData>
<Piece NumberOfPoints="6715" NumberOfVerts="6715" NumberOfLines="0" NumberOfStrips="0" NumberOfPolys="0">
<PointData>
<DataArray type="Float64" Name="Pressure" format="ascii">
 17534.247047 15976.457277 13787.931426 13449.351876 14052.187469 15590.849932 16574.373827 16667.154630 15214.120944 12453.420808 8079.133989 4079.049780 5130.970776 8418.893551 12339.616418 13110.958220 13733.794679 12364.238001 11410.986067 10525.752837 10752.533447 12244.436350 14389.596713 14675.267847 14726.729814 15543.356318 16515.922217 16202.929935 15544.799886 15993.034218 16402.350088 15677.746371 15061.612792 15812.367961 15463.050177 15590.114186 17790.868830 20432.112368 21508.170705 20720.420504 20718.079993 22527.073234 25450.404144 27433.566956 26290.748564 24732.857678 21797.271922 20232.310678 19626.910295 20203.865659 20592.002086 21509.596192 22641.767542 22870.351293 21553.733039 20025.658299 20841.417348 22011.842659 23541.616813 23959.858011 26127.052416 25796.831507 23992.352823 24290.351518 25690.247119 26211.824472 26198.479000 26361.553742 26468.760182 26694.022776 26810.658981 27918.617675 28331.233348 29406.229925 30263.792543 30820.628794 30913.207110 30423.564466 29051.729933 28005.591627 27055.951189 27834.887951 26023.882836 19781.178638 17786.056463 21995.216713 27951.241457 28362.994937 27960.304804 29090.713480 29047.296629 29130.068862 28333.255786 27581.556532 28830.303810 28323.242969 25994.651714 24327.476294 24979.339559 24875.758218 23053.933654 21848.740853 21664.334302 20758.324529 20805.227489 23245.869042 24428.217549 24576.415297 23156.644478 22690.120879 22027.308167 20686.696835 20652.364037 21186.270924 21274.025003 21140.865649 21604.850117 22244.582500 22079.831050 21616.097890 20417.110740 19439.801940 18811.702770 18090.698233 18053.134712 18281.981933 18750.863717 19200.455192 19898.363352 20527.692837 20679.609849 20617.920305 19948.580678 19181.174520 19725.274186 20129.522725 21110.657403 21798.723832 22521.125610 22302.375929 22019.229432 21923.318921 22288.377775 22148.168589 22178.673949 21979.700510 22073.164849 22558.946813 23004.456145 23075.764587 22497.936562 22419.798058 22530.284734 22288.357896 22485.278573 22825.462629 22875.082431 22858.470665 23351.405788 23894.133521 24024.408438 23764.628871 22898.659054 22164.309731 22100.347773 21813.721794 21047.184307 21012.686642 21695.458727 22529.583264 22403.167472 22109.405151 22218.593730 22157.653605 21902.148622 21121.645699 21384.980660 21648.422012 21284.035267 20928.783518 20498.536873 20754.400172 21567.623539 22178.068047 22226.943526 21682.127649 21319.778003 21387.296664 21768.360673 21829.316117 21676.644529 21488.484556 21174.337927 21491.879073 21977.677503 22514.818577 22244.137059 22261.767330 22270.379008 21558.477097 20667.248184 19018.325472 18302.725777 16990.547351 15156.650064 14398.970512 15021.741846 15870.804172 16786.638822 17393.332678 16462.898515 14330.266422 11496.630014 8562.458160 7627.426586 7741.982487 8674.662450 10847.502906 13059.427966 13602.742294 13196.026281 13136.536074 13142.797619 14138.170324 15248.676029 15295.466082 15465.739494 16878.095136 17786.067666 17151.856086 16459.122162 16238.868614 16195.322461 15925.340635 15997.617100 16558.361036 17248.660991 17704.464592 18690.316080 20297.957938 21269.719203 20981.641390 20816.782830 22200.763071 23986.573446 25484.748321 25758.386937 24188.777329 21796.327008 20472.683655 20407.920653 19972.319717 19816.352721 21047.357273 22306.810336 22252.674829 21714.070852 21246.124735 22125.039853 23537.067165 24043.367411 24629.218437 26044.749266 26812.453049 26292.269706 26290.083646 27385.615542 27404.216525 26642.020444 26618.431803 27030.564520 27566.022361 28389.985055 29028.282761 29166.481036 29535.742111 30333.699390 30508.952684 29510.406838 29126.673860 30161.391749 30233.381312 28966.603229 28250.582814 26735.869324 23284.374020 22249.529645 25411.182756 28273.071109 28836.593143 28886.375448 28761.894112 29178.780967 29240.722691 28249.416923 27666.434372 27850.168668 27352.191945 25755.518097 24839.281026 25408.344936 25593.152555 24851.025681 24249.804310 23605.355081 22857.435645 22750.265336 23587.251056 24389.412340 24164.369696 23520.161089 23206.427525 22780.131041 22440.392595 22533.402393 22765.322801 22921.972528 22872.853295 23017.084795 23517.692883 23513.741339 22747.366928 21690.794665 20843.699218 20244.353794 19744.956449 19513.748033 19678.966548 20036.455512 20301.500415 20694.647658 21136.715687 21320.578532 21268.566154 21348.779713 21174.689626 21047.485736 21491.807306 22086.091787 22403.428053 22810.076666 23026.028775 23016.756102 22969.391684 23033.592255 23222.201167 23280.775087 22870.865236 22643.492411 23089.046454 23609.136496 23582.612813 22991.300969 22639.166985 22744.868036 22997.022297 23317.629928 23595.419080 23686.881120 23753.220348 23859.612365 23931.419824 23848.475100 23418.899021 22777.280274 22251.361945 22136.333475 22033.735504 21266.767534 20788.217859 21387.011258 22261.209055 22497.245338 22232.329178 22164.237549 22128.416191 21711.890154 21384.590001 21605.545031 21662.927681 21303.294564 21107.898941 21091.710481 21083.590138 21379.475855 21750.244335 21946.513801 21983.403487 21822.699306 21588.038931 21378.537401 21314.227460 21449.137511 21589.432053 21643.644096 21660.783890 21754.090665 22159.674822 22344.770494 22024.364786 21418.172411 20713.337916 20093.822469 19635.411314 19661.708672 19407.996714 18740.849118 17683.194516 16532.035940 15917.960338 16049.268833 16363.975534 16732.480533 16999.065401 16578.138733 15391.485633 13626.560955 11513.623708 9925.861775 9056.390096 9053.269100 10202.669355 11858.327183 13160.733972 13794.396203 14075.446322 14341.056961 14924.608070 15610.205655 15988.736427 16316.184649 16842.462668 17069.646452 16811.264521 16509.219660 16416.128791 16479.934346 16606.482765 16977.781556 17551.816952 18173.821456 18706.675051 19268.219586 19863.960764 20289.355785 20361.303166 20601.946578 21560.717064 22744.773296 23632.879780 23833.577449 22919.900853 21813.140080 20969.220108 20420.768361 19987.086352 20056.261217 20800.455505 21627.418338 22018.678814 22110.396343 22219.991938 22557.400644 23151.379891 23729.303937 24618.169040 25812.850375 26865.685217 27356.669130 27559.911953 27734.979887 27456.981746 26979.470058 26955.412163 27419.267278 28141.324277 28907.231140 29426.781063 29760.076789 30122.807317 30711.563305 31085.386720 30878.544984 30738.359246 30974.298015 30605.242293 29533.472630 28355.902570 27007.049022 25598.755346 25261.928763 26557.550083 28173.675302 29094.875460 29303.126062 29036.502423 28857.563133 28515.523084 27867.759566 27353.265060 27085.380408 26760.900082 26196.381112 25834.836646 25865.571100 25805.383409 25497.285747 25163.137069 24774.768622 24462.625565 24379.586206 24435.849352 24482.795497 24246.760653 23989.950678 23779.141106 23629.784294 23571.050266 23551.132368 23587.920501 23659.062923 23721.184382 23853.128596 24031.077746 23928.058760 23294.003798 22525.068562 21902.550014 21401.618299 20997.329909 20770.740259 20815.952392 20916.194423 21028.242053 21223.609061 21493.920768 21696.858446 21752.512406 21821.108976 21836.097856 21826.920168 22064.177846 22422.822425 22751.037297 23050.735789 23343.798852 23532.777488 23596.094722 23646.162874 23790.337024 23797.418196 23606.459189 23471.483713 23568.612231 23707.674910 23600.444373 23303.841015 23092.562706 23147.245825 23368.517440 23619.881630 23863.590391 24028.274193 24075.423399 24048.723977 23983.246774 23770.888985 23354.766930 22861.296050 22427.503352 22172.209707 21956.095803 21609.617145 21402.274370 21670.375289 22097.479278 22255.719091 22161.069769 21995.657359 21831.570418 21593.144736 21425.125522 21447.428916 21472.928063 21381.577199 21380.792362 21514.660768 21563.454676 21605.168341 21699.404995 21761.510187 21809.762472 21823.029845 21743.659423 21602.832874 21532.691639 21593.374188 21675.910593 21717.578023 21687.055205 21679.137945 21748.937839 21775.869141 21514.869710 21022.269226 20459.506545 19885.438341 19446.674350 19256.677876 20667.248184 21908.683460 22733.655981 21803.846241 20361.798871 19670.536238 18967.324930 17932.382892 16823.508140 16224.754493 15909.327541 14838.826955 12899.027515 11419.670564 10556.850019 9647.273191 7794.050379 5924.869572 5538.724296 5874.663126 4910.983107 3186.737342 2294.309506 1739.312711 1345.312878 1064.460086 865.341016 724.401470 623.768941 550.180039 493.998849 448.414515 408.847372 372.458354 337.703805 303.939565 271.091342 239.399191 209.233227 180.971177 154.925686 131.309021 110.223970 91.671495 75.567697 61.764634 50.071264 40.272255 32.143511 25.464057 20.024442 15.632118 12.114355 9.319296 7.115686 5.391717 4.053354 3.022409 2.234543 1.637320 1.188396 0.853880 0.606882 0.426251 0.295494 0.201868 0.135614 0.089330 0.057456 0.035858 0.021493 0.012151 0.006240 0.002632 0.000538 -0.000587 -0.001111 -0.001277 -0.001245 -0.001115 -0.000946 -0.000772 -0.000613 -0.000476 -0.000362 -0.000271 -0.000200 -0.000146 -0.000105 -0.000075 -0.000052 -0.000037 -0.000025 -0.000017 -0.000012 -0.000008 -0.000005 -0.000003 -0.000002 -0.000001 -0.000001 19635.411314 20043.940248 20664.476460 21054.069036 20653.853239 19849.639164 19173.156239 18480.171851 17625.012118 16806.722220 16067.507535 15312.874124 14118.943550 12462.797481 11121.647405 10041.815928 8903.903258 7603.520987 6223.453944 5253.026062 4592.963524 3786.129348 2933.885185 2245.769117 1722.191158 1337.351359 1059.896012 862.459648 722.528905 622.552467 549.410865 493.538042 448.158359 408.716285 372.393663 337.665165 303.901734 271.040686 239.330377 209.146383 180.869632 154.814273 131.192902 110.107890 91.559376 75.462474 61.668265 49.984835 40.196140 32.077541 25.407681 19.976871 15.592431 12.081589 9.292505 7.093978 5.374279 4.039463 3.011435 2.225943 1.630636 1.183244 0.849943 0.603900 0.424012 0.293829 0.200642 0.134721 0.088687 0.056998 0.035536 0.021270 0.011999 0.006138 0.002565 0.000495 -0.000613 -0.001126 -0.001286 -0.001250 -0.001116 -0.000946 -0.000772 -0.000612 -0.000474 -0.000361 -0.000270 -0.000199 -0.000145 -0.000104 -0.000074 -0.000052 -0.000036 -0.000025 -0.000017 -0.000012 -0.000008 -0.000005 -0.000003 -0.000002 -0.000001 -0.000001 -0.000000 19256.677876 19408.520328 19725.181459 20073.581418 20223.761666 19989.701938 19480.290973 18871.802694 18177.185131 17387.854586 16559.968013 15701.711145 14760.209062 13629.435141 12325.063000 11032.423276 9793.358843 8563.158912 7341.299133 6178.321101 5186.756443 4347.396017 3573.765128 2850.112717 2221.158261 1718.362456 1339.045442 1062.479472 864.701537 724.209060 623.717895 550.167715 493.995854 448.413721 408.847142 372.458283 337.703783 303.939558 271.091339 239.399190 209.233226 180.971177 154.925686 131.309021 110.223970 91.671495 75.567697 61.764634 50.071264 40.272255 32.143511 25.464057 20.024442 15.632118 12.114355 9.319296 7.115686 5.391717 4.053354 3.022409 2.234543 1.637320 1.188396 0.853880 0.606882 0.426251 0.295494 0.201868 0.135614 0.089330 0.057456 0.035858 0.021493 0.012151 0.006240 0.002632 0.000538 -0.000587 -0.001111 -0.001277 -0.001245 -0.001115 -0.000946 -0.000772 -0.000613 -0.000476 -0.000362 -0.000271 -0.000200 -0.000146 -0.000105 -0.000075 -0.000052 -0.000037 -0.000025 -0.000017 -0.000012 -0.000008 -0.000005 -0.000003 -0.000002 -0.000001 -0.000001 -0.000000 -0.000000 -0.000001 -0.000000 -0.000000 -0.000000 -0.000000 -0.000000 -0.000000 -0.000000 -0.000000 -0.000000 -0.000000 -0.000000 -0.000000 -0.000000 -0.000000 -0.000000 -0.000000 0.000000 0.000000 0.000000 0.000000 0.000000 0.000000 0.000000 0.000000 0.000000 0.000000 0.000000 -0.000000 -0.000000 -0.000000 -0.000000 0.000000 0.000000 0.000000 -0.000000 -0.000000 0.000000 0.000000 0.000000 -0.000000 -0.000000 0.000000 -0.000000 0.000000 0.000000 0.000000 0.000000 0.000000 0.000000 0.000000 0.000000 0.000000 0.000000 0.000000 0.000000 0.000000 0.000000 0.000000 0.000000 0.000000 0.000000 0.000000 0.000000 0.000000 0.000000 0.000000 0.000000 -0.000000 0.000000 0.000000 0.000000 0.000000 0.000000 0.000000 0.000000 0.000000 0.000000 0.000000 0.000000 0.000000 0.000000 -0.000000 0.000000 0.000000 0.000000 0.000000 0.000000 0.000000 0.000000 0.000000 0.000000 0.000000 0.000000 0.000000 0.000000 0.000000 0.000000 -0.000000 0.000000 0.000000 -0.000000 0.000000 0.000000 0.000000 0.000000 -0.000000 -0.000000 -0.000000 -0.000000 -0.000000 -0.000000 -0.000000 -0.000000 -0.000000 -0.000000 -0.000000 -0.000000 -0.000000 -0.000000 -0.000000 -0.000000 -0.000000 -0.000000 -0.000000 -0.000000 -0.000000 -0.000000 -0.000000 0.000000 -0.000000 -0.000000 -0.000000 -0.000000 0.000000 0.000000 0.000000 -0.000000 0.000000 0.000000 0.000000 0.000000 -0.000000 0.000000 0.000000 0.000000 0.000000 0.000000 0.000000 0.000000 0.000000 -0.000000 -0.000000 -0.000000 -0.000000 -0.000000 -0.000000 -0.000000 -0.000000 -0.000000 -0.000000 -0.000000 -0.000000 -0.000000 -0.000000 -0.000000 -0.000000 -0.000000 -0.000001 -0.000001 -0.000002 -0.000003 -0.000005 -0.000008 -0.000012 -0.000019 -0.000030 -0.000048 -0.000074 -0.000114 -0.000176 -0.000268 -0.000407 -0.000615 -0.000922 -0.001376 -0.002041 -0.003010 -0.004413 -0.006433 -0.009322 -0.013432 -0.019242 -0.027413 -0.038850 -0.054814 -0.077146 -0.108821 -0.155914 -0.230535 -0.284750 -0.000000 -0.000000 -0.000000 -0.000000 -0.000000 -0.000000 -0.000000 -0.000000 -0.000000 -0.000000 -0.000000 -0.000000 -0.000000 -0.000000 -0.000000 -0.000000 -0.000000 -0.000000 0.000000 0.000000 0.000000 0.000000 0.000000 0.000000 0.000000 0.000000 0.000000 0.000000 0.000000 0.000000 0.000000 -0.000000 0.000000 0.000000 -0.000000 0.000000 0.000000 0.000000 0.000000 -0.000000 0.000000 0.000000 0.000000 0.000000 -0.000000 0.000000 0.000000 0.000000 0.000000 0.000000 0.000000 0.000000 0.000000 0.000000 0.000000 0.000000 0.000000 0.000000 0.000000 0.000000 0.000000 0.000000 0.000000 0.000000 0.000000 0.000000 0.000000 0.000000 0.000000 -0.000000 -0.000000 0.000000 0.000000 0.000000 0.000000 -0.000000 0.000000 0.000000 0.000000 -0.000000 -0.000000 0.000000 0.000000 -0.000000 -0.000000 0.000000 0.000000 0.000000 -0.000000 0.000000 0.000000 0.000000 0.000000 -0.000000 0.000000 0.000000 0.000000 0.000000 -0.000000 -0.000000 0.000000 0.000000 0.000000 -0.000000 0.000000 0.000000 0.000000 0.000000 -0.000000 -0.000000 -0.000000 -0.000000 -0.000000 -0.000000 -0.000000 -0.000000 -0.000000 -0.000000 -0.000000 -0.000000 -0.000000 -0.000000 -0.000000 -0.000000 -0.000000 -0.000000 -0.000000 -0.000000 0.000000 -0.000000 -0.000000 -0.000000 -0.000000 0.000000 -0.000000 0.000000 0.000000 -0.000000 -0.000000 0.000000 0.000000 0.000000 -0.000000 -0.000000 0.000000 0.000000 0.000000 -0.000000 -0.000000 0.000000 0.000000 0.000000 -0.000000 -0.000000 -0.000000 -0.000000 -0.000000 -0.000000 -0.000000 -0.000000 -0.000000 -0.000000 -0.000000 -0.000000 -0.000000 -0.000000 -0.000000 -0.000000 -0.000000 -0.000001 -0.000001 -0.000002 -0.000003 -0.000005 -0.000008 -0.000012 -0.000019 -0.000030 -0.000047 -0.000073 -0.000113 -0.000174 -0.000266 -0.000404 -0.000610 -0.000916 -0.001367 -0.002028 -0.002991 -0.004386 -0.006394 -0.009267 -0.013354 -0.019131 -0.027249 -0.038587 -0.054325 -0.076033 -0.105752 -0.145754 -0.196188 -0.235163 -0.247175 -0.000000 -0.000000 -0.000000 -0.000000 -0.000000 -0.000000 -0.000000 -0.000000 -0.000000 -0.000000 -0.000000 -0.000000 -0.000000 -0.000000 -0.000000 -0.000000 -0.000000 -0.000000 0.000000 0.000000 0.000000 0.000000 0.000000 0.000000 0.000000 0.000000 0.000000 0.000000 0.000000 0.000000 0.000000 0.000000 0.000000 0.000000 0.000000 0.000000 0.000000 0.000000 0.000000 0.000000 0.000000 0.000000 0.000000 0.000000 0.000000 0.000000 0.000000 0.000000 0.000000 0.000000 0.000000 0.000000 0.000000 0.000000 0.000000 0.000000 0.000000 0.000000 0.000000 0.000000 0.000000 0.000000 0.000000 0.000000 0.000000 0.000000 0.000000 0.000000 0.000000 0.000000 -0.000000 0.000000 0.000000 0.000000 0.000000 0.000000 0.000000 0.000000 0.000000 0.000000 0.000000 -0.000000 0.000000 0.000000 -0.000000 0.000000 0.000000 0.000000 0.000000 0.000000 0.000000 0.000000 0.000000 0.000000 -0.000000 0.000000 0.000000 0.000000 0.000000 -0.000000 -0.000000 0.000000 0.000000 0.000000 0.000000 0.000000 0.000000 0.000000 -0.000000 -0.000000 -0.000000 -0.000000 -0.000000 -0.000000 -0.000000 -0.000000 -0.000000 -0.000000 -0.000000 -0.000000 -0.000000 -0.000000 -0.000000 -0.000000 -0.000000 -0.000000 -0.000000 -0.000000 0.000000 0.000000 0.000000 -0.000000 0.000000 0.000000 0.000000 0.000000 0.000000 0.000000 0.000000 -0.000000 -0.000000 -0.000000 0.000000 0.000000 -0.000000 -0.000000 -0.000000 0.000000 0.000000 -0.000000 0.000000 0.000000 0.000000 0.000000 -0.000000 -0.000000 -0.000000 -0.000000 -0.000000 -0.000000 -0.000000 -0.000000 -0.000000 -0.000000 -0.000000 -0.000000 -0.000000 -0.000000 -0.000000 -0.000000 -0.000001 -0.000001 -0.000002 -0.000003 -0.000005 -0.000008 -0.000012 -0.000019 -0.000030 -0.000048 -0.000074 -0.000114 -0.000176 -0.000268 -0.000407 -0.000615 -0.000922 -0.001376 -0.002041 -0.003010 -0.004413 -0.006433 -0.009321 -0.013428 -0.019231 -0.027374 -0.038719 -0.054376 -0.075674 -0.103883 -0.139163 -0.177824 -0.210974 -0.225526 -0.227233 -0.284750 -0.421368 -0.703852 -1.031136 -1.428218 -1.925990 -2.555681 -3.353297 -4.361333 -5.630049 -7.218607 -9.196149 -11.642790 -14.650481 -18.323656 -22.779600 -28.148411 -34.572457 -42.205202 -51.209264 -61.753575 -74.009531 -88.146027 -104.323316 -122.685687 -143.353043 -166.411509 -191.903362 -219.816631 -250.074840 -282.527440 -316.941576 -352.995883 -390.277151 -428.280875 -466.416967 -504.022137 -540.380444 -574.753079 -606.417390 -634.714015 -659.100042 -679.204570 -694.878041 -706.231148 -713.689619 -718.190631 -721.443445 -724.168536 -732.060228 -771.394467 -806.710906 -856.768206 -795.120102 -271.880636 71.777293 -10.182157 -629.166170 -602.214418 -632.951450 -1461.449935 -2789.468424 -2940.658275 -292.189583 154.154601 861.914887 -286.889206 -4339.310708 -4951.827807 -1460.298964 377.329611 -673.394743 -2341.847637 -3027.397545 -1249.898325 200.545547 1129.036345 1737.163676 1511.243985 1611.094420 1567.177650 2222.390892 2480.240008 2118.553363 2101.173961 2265.020468 2724.347455 3400.607646 4565.768180 5731.439318 6747.262861 7385.613627 7404.515930 7928.131150 10008.898524 11295.891299 11795.016292 11860.563868 13433.595059 16178.709539 17534.247047 -0.247175 -0.310171 -0.465681 -0.717193 -1.031745 -1.424777 -1.920352 -2.548181 -3.343800 -4.349533 -5.615554 -7.200963 -9.174855 -11.617304 -14.620230 -18.288048 -22.738043 -28.100335 -34.517345 -42.142624 -51.138914 -61.675323 -73.923470 -88.052529 -104.223085 -122.579815 -143.243049 -166.299378 -191.791559 -219.708097 -249.972964 -282.436000 -316.864649 -352.937717 -390.241992 -428.272731 -466.439307 -504.077507 -540.470033 -574.876272 -606.571391 -634.893567 -659.297353 -679.409904 -695.081478 -706.421048 -713.845754 -718.258130 -721.461430 -725.567935 -733.264760 -759.972291 -808.004312 -843.845297 -852.621663 -732.821745 -649.104954 -831.259256 -992.205436 -871.985463 -965.243592 -1390.921689 -1880.681221 -2061.764239 -1079.441010 235.507953 553.056983 -595.863495 -2151.594648 -2585.277632 -1283.629364 -488.411946 -1000.396168 -1703.508775 -1819.348604 -1029.309071 238.401097 660.548134 527.188135 867.662250 1348.067260 1604.248580 1824.321185 2144.708650 2494.605098 2803.175660 3032.172405 3353.338670 4027.090753 4965.616473 6022.872269 7197.583018 7639.820378 7792.323109 8680.709708 10223.459941 11451.585346 12102.909961 12912.931422 14667.778157 16697.235818 18104.876002 19018.325472 -0.227233 -0.250935 -0.332186 -0.495737 -0.730813 -1.038956 -1.430559 -1.926688 -2.555888 -3.353358 -4.361352 -5.630055 -7.218609 -9.196149 -11.642790 -14.650481 -18.323656 -22.779600 -28.148411 -34.572457 -42.205202 -51.209264 -61.753575 -74.009531 -88.146027 -104.323316 -122.685687 -143.353043 -166.411509 -191.903362 -219.816631 -250.074840 -282.527440 -316.941576 -352.995883 -390.277151 -428.280875 -466.416967 -504.022137 -540.380444 -574.753076 -606.417384 -634.714028 -659.100303 -679.206380 -694.885287 -706.247112 -713.713196 -718.190751 -721.557258 -726.875565 -737.178717 -758.679626 -796.756291 -831.573059 -839.095397 -810.254512 -794.281680 -855.829347 -895.933181 -938.879202 -1117.743594 -1380.529951 -1553.782027 -1466.924204 -946.436767 -382.182983 -504.663933 -1012.776582 -1471.278563 -1586.071298 -1354.136029 -1200.485523 -1337.482477 -1475.465436 -1343.505321 -818.189281 -77.521189 392.945831 627.087836 972.341848 1405.472655 1841.914986 2250.293734 2666.664962 3038.136812 3321.573841 3673.659668 4151.107962 4786.855998 5554.574601 6407.109626 7257.366099 7878.577304 8450.564853 9359.647540 10546.364384 11713.232159 12669.560926 13740.801608 15176.002998 16805.457558 18337.424466 19314.160121 19661.708672 3440.299941 3200.042226 4401.094557 3495.674527 3005.590672 2053.929914 3707.149944 3417.203268 4194.512976 5020.500423 6622.683894 4311.664447 3243.638400 6947.491201 8535.954172 9279.698837 11728.709859 11746.688181 12116.253358 15927.402102 3177.287607 2193.592281 1954.014827 3620.677818 3335.516672 3189.500758 2153.500929 3588.310180 2986.069869 7036.199912 3573.545629 5756.279348 10070.736302 7265.792658 6369.468430 11632.753146 12120.976991 11258.909868 12802.312145 12813.824655 3376.380463 2006.861376 2298.068431 2750.952936 3680.810328 4502.650282 4069.408420 3398.511296 3722.931534 5290.376304 5483.142235 6825.818005 3194.481234 11317.161446 12595.207442 12444.252323 11537.351507 13252.240913 12625.653248 14300.150252 3873.582773 6610.496191 11372.813213 4533.810843 11191.166258 2332.882160 3769.590071 5676.657841 5183.036314 11388.573697 13117.602318 5130.664802 6540.216670 8092.283248 12247.019099 12016.412119 3183.250356 13724.935022 12876.596645 13906.404312 7172.878019 3686.504655 -17102.165200 4944.662334 3566.367726 8591.441401 47341.779793 -34151.313989 4822.649671 5176.149024 3451.059296 2061.004724 5687.009254 8657.366554 5050.633428 11734.222539 10293.338036 3641.015624 15311.945752 15701.138421 3541.345721 9753.467988 1764.571951 3775.579092 -34054.454496 6716.398283 4513.494842 -515.751961 7742.922202 2801.157075 6900.764188 10541.744143 12052.769245 4813.139245 7185.372831 12285.694097 12147.570669 8233.432263 12498.527885 11645.183409 776.712120 7490.623569 9030.694671 5374.538056 5355.632267 -12016.715189 6441.900278 3312.598353 3316.871268 -22358.964620 2351.120874 3448.944500 53.003490 7747.432192 -2121.528900 -2954.720330 9396.187223 12626.011697 14637.503847 13590.422728 53328.969416 2372.770530 20324.757125 1612.089904 6547.523025 51678.128833 1114.956809 12577.097979 16369.276450 2462.780202 4080.509432 3955.322109 7990.303905 -2914.706693 24943.091632 5609.764144 15005.648531 8868.218118 4507.659872 9741.021558 1664.446977 5521.896152 5210.573859 3651.282538 -32883.808949 4517.126223 7756.648456 3718.303429 9610.640462 3617.894202 5980.395879 8496.256381 8066.601030 -872.480664 16004.463822 3088.494704 5226.325955 11452.992226 15418.914039 10873.014047 7661.231199 18289.728356 5546.164245 9421.484000 3090.201113 43657.743626 3628.256181 -28736.161475 4446.494497 2915.667740 13828.171556 -7671.519534 10728.658588 5110.869684 3848.404641 11906.573774 26145.040301 8524.584421 14285.561140 15086.556532 10480.071993 -33780.252841 -14627.991740 3013.279171 5737.796101 5092.097088 3409.129819 6192.612559 44381.286443 -3340.522833 11176.704926 8332.435837 5726.571755 12993.323091 10275.501453 12464.534852 4894.912474 5715.973490 4537.645855 -854.841112 5911.180581 7355.220940 54976.516291 10320.335548 -31322.585383 3963.909859 1788.650866 4072.551153 12716.404235 14325.041509 8142.366215 11300.669890 10732.124031 4574.618851 10283.227740 13500.288731 12470.304537 10524.705638 10482.830261 9108.209995 -5790.711402 12360.935110 4792.362768 2393.781531 12920.862423 62465.780980 10187.853909 6958.254389 9135.708958 4098.468066 2260.189130 10357.387497 14646.208894 6601.534943 9061.957758 3630.065904 12369.636275 8267.092039 13899.139200 14308.018993 3453.569573 3012.147158 6428.095213 13512.237735 10949.647031 7747.046468 3347.179346 11126.361309 6522.019124 1729.882133 10258.823102 5880.455270 16943.104891 15041.951685 5930.349785 12545.042068 11204.192144 14162.192436 -10742.117789 4090.521441 2289.779340 4852.905377 4645.088307 2143.374693 5588.283648 4310.605925 6257.122832 3290.229005 8477.922092 2782.811914 8548.193551 9562.423165 11738.248271 7843.281068 5443.167268 14844.819300 11291.034042 13278.684837 13094.880974 14191.748877 5038.208569 1979.793046 5511.079142 9357.817006 8924.848941 10288.641641 9584.882804 8693.233533 3463.359719 5521.833415 9275.909052 8913.144139 15438.516893 10172.502724 13232.492182 12777.188304 14142.394924 11457.286580 10193.795180 12639.680901 7617.569335 12871.661296 4819.531246 10051.771717 1995.748783 -26455.649555 6192.287782 5342.529231 6423.858410 9935.008156 14373.662642 9954.004647 11134.437244 13341.517291 12742.401435 15070.340842 11881.503267 10907.110596 5755.749765 4456.253103 10389.296312 5685.235611 5933.264522 6267.200317 7934.787341 4939.061952 5533.127701 7181.019001 7101.247506 5417.039783 10411.969757 14572.476871 11565.684484 16015.101595 13140.837718 13496.178158 11282.765811 9209.166272 13362.277012 7932.919290 7585.059084 6839.793178 2029.212285 6084.743037 9252.764650 10132.607900 11499.660583 15470.877386 11962.118777 11716.974628 18266.782994 16680.184311 12565.780643 10110.208425 11228.043486 15235.961518 10131.003166 14666.845170 15680.210642 9838.763890 8698.362839 4650.548480 4082.781522 7708.883835 10128.195599 11793.325648 9520.563928 12832.242556 7305.855301 14376.080206 17563.494622 17649.896124 17535.604477 10406.859988 13105.674814 15481.429311 12857.780494 9968.602536 6394.864161 11590.920644 7518.164906 13310.192347 8349.904043 5546.164312 13513.309726 8292.002525 13841.753449 13857.125550 10447.027933 13452.605832 17532.655109 14304.036945 16085.404563 15131.597584 18930.280677 16824.500839 17019.378922 18537.128926 15500.002195 14142.038674 7421.867980 9926.011866 8470.313559 8721.047878 10981.881807 9614.525106 14306.358988 9920.988498 14835.786590 11503.289384 14692.485323 10517.585817 14937.457684 17940.659658 15104.937237 21224.679982 17402.150418 14458.871957 12435.812379 14474.725502 13019.374254 9017.171581 9264.629393 10275.657769 9383.289739 11526.015517 10158.897454 14474.961613 8494.325491 12662.481498 15523.140923 16806.431450 15541.053885 19564.701734 16783.531732 17630.751151 15751.249295 20727.149035 13218.221625 14214.690110 11330.688743 9250.075479 11763.630805 9723.981547 8801.998143 8393.695862 13051.841627 13144.575371 15627.926017 14451.939992 11671.859281 13620.028006 20712.007796 14966.863705 18540.829149 16229.895061 15770.964965 19032.965024 13376.000309 14946.834146 10494.770515 9944.365456 12789.185767 9377.139663 9688.404383 11344.988222 14850.146214 11282.314545 16538.682405 13066.164445 15884.779526 17666.182770 17062.603808 19971.919746 17405.469387 23407.636889 21689.567340 21579.457817 14377.408592 15535.126559 9241.444483 15747.288677 16028.778604 11091.945943 15952.423647 13284.568219 11497.249810 17796.043322 9432.101108 16161.951575 15760.262709 19059.525620 18309.032759 19090.208439 22706.229541 19676.649552 18143.244254 19366.624593 18240.743182 16032.182339 14988.300875 11714.163830 8561.326642 9557.655850 9680.893016 14267.157877 12174.386865 15645.933038 17255.663285 17796.104950 19248.979407 20279.248192 17685.741766 19160.425591 18845.864805 20804.477058 19463.207075 22221.206364 14975.521858 14542.337433 12401.061425 9964.599229 11452.451297 9964.337719 10189.045633 12242.700908 13858.684992 17339.685055 13219.969301 21151.335330 17817.618762 19557.551181 14490.167399 16893.382680 19086.941887 19885.004322 24230.825678 18662.265770 15809.168948 24509.492729 8824.507177 11513.061435 5947.482805 12246.780042 10462.435619 14320.824718 16950.994498 13877.832569 14421.831516 17660.149027 14793.557061 13810.562228 19107.206270 18924.188850 19817.147966 19503.785715 18796.766359 19262.925020 20237.097933 19076.614501 770.461936 12004.604881 8941.759355 11141.533400 12007.570807 12079.992069 11623.722411 14165.674345 16596.315429 17100.891352 11968.354052 19644.241602 17639.721854 21706.367376 20083.708767 18970.895255 19409.087677 21878.392761 15014.698456 14608.681742 368.187939 5570.759323 351.345567 9615.349117 9399.255174 12199.639046 12913.283389 12259.196336 12859.984796 18102.639267 16133.852955 17034.023883 16611.909719 18389.630683 19917.959568 20973.319469 20316.129724 20332.162706 13784.129432 17886.643366 2170.148221 3956.164730 1088.287030 5214.076088 8518.723305 8566.001860 14627.725597 10550.988800 14241.360895 14298.999989 15182.486378 13254.913452 14784.096914 17842.146844 18767.553242 19482.912680 19889.854680 18644.279271 20510.501218 27507.989431 1841.003282 2896.355954 976.651958 3985.167557 5240.534498 14188.463502 9604.929768 10128.647491 13881.050607 15650.942694 15446.410643 16827.086481 21537.733478 18483.538814 20452.024797 21796.492648 19646.280266 19635.419041 15007.729767 18592.479249 8.535115 5255.613805 2614.060042 2592.740377 6099.134977 13093.909289 10333.484683 14326.097412 13330.087634 13415.661187 14703.966904 17409.789027 15044.579535 18140.748484 19732.756934 19349.003808 19692.054135 20882.463387 16039.190480 15008.516038 1317.218123 -180.150871 2523.020756 3481.040252 5901.596866 12086.287348 9689.252482 8806.972349 15474.394149 16973.228817 18805.479146 18479.795151 16186.499455 20777.627144 20720.761836 22713.350215 21713.393029 20452.531329 20086.595479 20084.296737 -663.567247 2112.032226 378.672730 5761.826565 7249.234574 9397.527026 11108.477818 10979.018649 11992.226014 13243.305617 16554.021046 17494.375701 19018.973909 18014.401130 18078.631224 22850.059590 19572.960393 23616.709130 19323.195007 18158.592899 -8530.598652 2928.038370 429.849678 1712.881001 7455.631389 6388.485905 9810.964363 12