<VTKFile type="PolyData">
<PolyData>
<Piece NumberOfPoints="6715" NumberOfVerts="6715" NumberOfLines="0" NumberOfStrips="0" NumberOfPolys="0">
<PointData>
<DataArray type="Float64" Name="Pressure" format="ascii">
 16896.006752 16316.586206 14982.033459 13089.554148 11155.066863 9696.652646 9437.158624 9457.461267 9496.173582 8858.135134 7788.900450 5490.242112 5067.135324 4029.046717 -1405.302912 1274.535640 22443.977793 13719.827690 -27945.860026 -34598.637607 -3170.410414 19049.641436 6939.431096 3628.665225 2665.081978 3139.817188 4317.091658 4732.774306 5376.761389 6196.282153 6659.850716 8281.539360 9159.245267 11096.803286 11536.099546 11583.532049 11256.107305 11050.318361 10209.739221 10822.584730 11690.351171 12523.914419 13157.884610 13506.319771 13711.907298 13313.888119 13042.210789 13237.372298 13810.341640 15792.955076 17164.222587 16833.156986 13737.588869 12173.014662 12854.857287 13654.631559 15810.365368 17547.520931 18782.019964 18403.302723 17570.938598 17049.300480 16292.812225 15465.929213 15235.138035 16371.220570 17191.600054 17543.042437 17795.871996 17834.301716 18059.821214 18488.157870 18406.365254 17479.495086 16161.436117 16295.686557 16713.822271 17095.481820 16913.868016 17162.511415 17524.550360 17711.852353 17436.697924 17176.597598 18117.191201 19599.869211 19907.149083 18870.155502 17954.203477 18102.152693 18212.445293 17660.544948 17393.806901 16555.921449 16159.326130 16617.285744 17273.365945 17547.706579 17619.269352 17895.372121 17724.754522 17683.619372 16890.882336 16386.653788 16655.947241 17750.425915 18732.070998 18518.719234 17551.795393 16926.143499 17737.324035 18175.204420 17496.799692 17219.167627 18227.751443 19842.376345 19970.685491 19532.667998 20150.627854 19796.208451 19019.815252 18741.171475 18597.164134 18253.770343 18142.000957 18499.634805 18218.024694 18408.047478 18414.722632 18235.060606 17916.810230 17834.061756 17796.996310 18562.178702 18646.968254 18244.823487 17903.952907 17873.602650 17957.033986 17596.103976 17304.572066 16595.318443 16217.811880 15266.097768 15063.013110 15466.612498 16321.881666 16838.920707 17034.301812 16603.686929 15869.645110 15382.612567 15163.554133 15251.703723 15076.150782 15018.937810 14894.733593 14573.378731 14384.247748 14795.348683 15069.280060 15097.215595 14661.840120 14856.722252 15104.485975 15114.660258 15076.036885 14568.350031 13540.225059 13488.864922 13627.094309 13577.423241 14021.753297 13384.737811 12836.031364 12528.808531 12737.820319 13055.689345 13203.060529 13032.930170 12705.832205 12562.018002 12700.759268 12428.783175 12032.716820 11881.881199 12036.238203 11779.060186 11031.718171 10566.788331 10274.336533 10291.420837 10160.633742 9873.390684 9796.560114 9575.388459 9309.181787 9332.484686 9385.948964 9220.651870 9289.548397 18168.686773 17748.343780 16889.385090 15850.685178 14677.497500 13690.400349 13037.015551 12242.710812 11601.977100 11205.964326 10688.796620 9371.662001 7208.942365 5650.000578 4854.535462 1912.648310 -1919.176528 -2344.331939 887.822419 2655.821411 8725.798284 13517.565387 7507.085004 4881.941492 4911.310944 4354.222906 4474.238857 5330.603781 6171.166050 7122.553674 8145.489821 8832.115616 9562.151119 10219.787645 10928.152952 11896.178707 12197.134712 11953.212171 11985.398878 12091.158469 12294.399146 12951.906482 13625.198301 14044.501740 14055.556697 13867.438722 13868.905779 13998.710830 14467.861257 15431.200261 16607.493349 17460.881382 17163.629778 15497.065287 14277.039373 14055.335530 14031.209202 14922.132699 16611.272749 17614.754886 17672.212470 17382.596432 16823.337742 15918.438428 15265.527860 15180.424715 15833.167762 16851.020010 17531.407364 17821.877319 17976.002134 18151.128254 18328.670838 18038.651584 17314.886177 16680.135933 16621.913588 16971.099013 17329.944777 17444.037724 17347.394979 17523.086936 17931.309766 17972.988296 17984.900862 18697.128940 19832.365627 19959.540869 18923.279299 18270.888909 18196.391553 18097.052868 17758.856932 17500.995079 17145.468233 16845.393104 17119.314807 17407.347580 17364.629363 17408.533497 17427.379426 17082.253800 16790.635009 16751.731374 16723.727043 16926.487685 17670.939980 18300.257766 18329.275935 18079.142505 18112.143530 18433.121660 18604.948917 18514.958171 18495.434930 18828.015321 19239.460817 19446.687709 19419.997996 19673.426673 19770.707554 19352.125981 19045.177612 18831.852630 18490.320207 18422.392525 18574.793542 18449.805927 18374.251045 18493.746566 18354.591266 18061.645345 17629.622463 17454.665168 17839.891505 17981.572294 17766.796012 17609.012211 17513.215462 17176.965890 16638.012397 16304.581347 16089.948201 15864.131908 15817.806420 15873.798805 15949.500750 16049.502564 16119.594600 16125.294716 15823.679657 15433.116709 15231.168914 15067.803201 14893.102085 14685.110981 14509.073309 14437.047046 14461.310396 14470.750700 14611.333621 14775.783632 14799.684614 14650.745188 14549.100683 14572.132336 14646.833357 14521.080785 14086.643518 13365.262747 12989.266379 13508.032540 13974.920724 13574.040133 12875.946426 12784.235930 12915.103062 12943.002163 12898.660772 12849.427635 12563.603348 12301.165405 12306.330866 12251.100809 11882.146098 11580.232972 11557.911639 11524.016060 11213.302485 10788.758755 10488.854089 10359.165912 10252.489333 10055.230852 9866.192803 9685.020269 9480.655424 9405.897325 9423.838722 9492.140018 9497.234114 9502.709787 9544.084320 18612.637630 18388.909884 17960.672151 17357.144541 16696.649950 15976.530635 15351.826723 14825.305721 14190.788603 13398.864224 12435.359155 11228.709025 9717.915832 8018.914895 6421.781372 5750.211189 5002.248049 2456.721202 -847.530472 -2599.790541 -639.094230 1863.887016 2583.528982 3415.256005 4810.997677 5668.078725 5787.368146 5971.152865 6500.248282 7165.704005 7920.225074 8704.045251 9413.452638 10123.733850 10838.632416 11448.374100 12045.582948 12307.666858 12315.133182 12369.165100 12599.956427 12897.278368 13363.447206 13854.500739 14196.684579 14309.841506 14291.457785 14334.533217 14506.728971 15032.199912 15902.523544 16712.580136 17210.098427 16987.043667 16206.967988 15428.315629 15002.681778 15007.047599 15479.074355 16329.399816 16934.674057 17140.368493 17039.426297 16657.866775 16150.090035 15746.857214 15698.147561 16050.621250 16632.835920 17195.973166 17650.371111 17977.634738 18205.409609 18244.482853 17999.406677 17557.996320 17170.075546 17046.175245 17183.199933 17396.549204 17594.458570 17645.719717 17793.577346 18066.037076 18227.035776 18426.925505 18884.532486 19347.982090 19372.196482 18963.993217 18490.432991 18242.451795 18096.497901 17878.696338 17593.834455 17325.604415 17179.282077 17268.392179 17464.940868 17614.317695 17748.581987 17818.483579 17762.721667 17650.801187 17580.373214 17504.181115 17629.118518 17919.129321 18211.155397 18424.371324 18591.252427 18750.549102 18823.242101 18885.767223 19014.601621 19117.922025 19229.587211 19362.829465 19453.559701 19543.049937 19657.604164 19673.181496 19453.271416 19171.006791 18934.140287 18680.334458 18488.637380 18421.276514 18278.909527 17858.732363 17659.846309 17579.763971 17501.987427 17340.682821 17287.923206 17420.292177 17557.460321 17567.086284 17517.133113 17332.952054 16933.400332 16434.359721 16100.507394 16110.086009 16295.866325 16487.602443 16434.340671 16201.961366 15978.096728 15839.726862 15700.341277 15473.084472 15233.213756 15051.918284 14904.308642 14754.370695 14638.495566 14554.725555 14547.507251 14603.538218 14620.536466 14595.749821 14571.102489 14490.610640 14398.522624 14312.650792 14293.162220 14290.155047 14117.710206 13773.345615 13382.468327 13131.708597 13254.399128 13450.352139 13317.748534 13081.735447 12958.600810 12903.904007 12780.267258 12646.067153 12522.672370 12326.445838 12142.298318 12035.873748 11898.224232 11680.530268 11480.730072 11405.504707 11304.611370 11107.784557 10874.939740 10659.887440 10522.705106 10380.827455 10208.543594 10021.356247 9807.894496 9630.791669 9529.077259 9501.261543 9507.954688 9535.711098 9579.018024 9641.559859 9684.126857 9289.548397 8748.894664 8164.629595 7664.545032 7257.859734 6620.151114 5916.684309 5505.397267 4939.999023 4196.621793 3695.305513 3247.134460 2737.752623 2348.262779 2194.329806 2103.429029 1679.755155 1180.827621 1195.918111 1275.054237 1464.293977 1861.984859 2033.476497 2174.797934 2244.156863 2251.110754 2211.102915 2136.160335 2035.771494 1918.008025 1789.824232 1657.092629 1524.534200 1395.720778 1273.157645 1158.421227 1052.325704 955.096917 866.537150 786.169724 713.357551 647.394137 587.568655 533.208601 483.704394 438.520347 397.196074 359.341719 324.629708 292.784991 263.575171 236.801356 212.290229 189.887528 169.452931 150.856238 133.974663 118.691046 104.892770 92.471210 81.321548 71.342840 62.438204 54.515086 47.485523 41.266378 35.779520 30.951941 26.715797 23.008383 19.772053 16.954069 14.506421 12.385601 10.552352 8.971403 7.611187 6.443559 5.443518 4.588928 3.860256 3.240321 2.714055 2.268280 1.891505 1.573735 1.306299 1.081693 0.893438 0.735950 0.604430 0.494754 0.403392 0.327315 0.263931 0.211005 0.166588 0.128883 0.095823 0.065655 0.050501 9544.084320 9317.348133 8851.070103 8219.392209 7635.201317 7127.584301 6558.668795 5951.660739 5369.591926 4818.127001 4254.002096 3711.120611 3220.003682 2820.411512 2490.889802 2215.873105 1969.013042 1718.496464 1506.815354 1468.680131 1548.738959 1713.928344 1889.070786 2056.672538 2187.098213 2249.714644 2254.024206 2212.919026 2137.373430 2036.581016 1918.491203 1790.037052 1657.089545 1524.368146 1395.440500 1272.805503 1158.031961 1051.926111 954.706264 866.168096 785.829516 713.049291 647.117970 587.322796 532.990164 483.510005 438.346586 397.039748 359.200019 324.500273 292.665913 263.464957 236.698873 212.194639 189.798222 169.369471 150.778304 133.902015 118.623490 104.830134 92.413328 81.268251 71.293946 62.393520 54.474405 47.448627 41.233040 35.749508 30.925020 26.691732 22.986945 19.753016 16.937219 14.491553 12.372520 10.540877 8.961366 7.602431 6.435941 5.436907 4.583205 3.855315 3.236065 2.710398 2.265146 1.888825 1.571449 1.304355 1.080043 0.892042 0.734772 0.603439 0.493924 0.402700 0.326743 0.263468 0.210658 0.166415 0.129111 0.097438 0.070796 0.053760 0.046746 9684.126857 9577.861569 9285.581240 8804.850061 8242.182969 7670.222750 7101.291339 6524.652259 5942.836916 5354.670853 4783.048963 4239.764244 3719.833454 3246.001580 2846.219566 2508.560201 2219.594750 1971.598198 1755.194567 1598.780459 1544.889649 1604.788873 1741.879292 1910.475695 2074.252448 2192.286832 2249.863008 2252.823499 2211.610228 2136.287256 2035.804368 1918.017550 1789.827183 1657.093586 1524.534510 1395.720875 1273.157675 1158.421236 1052.325707 955.096918 866.537150 786.169724 713.357551 647.394137 587.568655 533.208601 483.704394 438.520347 397.196074 359.341719 324.629708 292.784991 263.575171 236.801356 212.290229 189.887528 169.452931 150.856238 133.974663 118.691046 104.892770 92.471210 81.321548 71.342840 62.438204 54.515086 47.485523 41.266378 35.779520 30.951941 26.715797 23.008383 19.772053 16.954069 14.506421 12.385601 10.552352 8.971403 7.611187 6.443559 5.443518 4.588928 3.860256 3.240321 2.714055 2.268280 1.891505 1.573735 1.306299 1.081693 0.893438 0.735951 0.604430 0.494755 0.403394 0.327323 0.263956 0.211088 0.166864 0.129793 0.098912 0.074196 0.056388 0.047368 0.044721 0.050501 0.043326 0.032841 0.025494 0.020019 0.015754 0.012387 0.009719 0.007607 0.005937 0.004621 0.003587 0.002775 0.002142 0.001648 0.001264 0.000966 0.000737 0.000560 0.000424 0.000320 0.000241 0.000181 0.000135 0.000101 0.000075 0.000055 0.000041 0.000030 0.000022 0.000016 0.000012 0.000008 0.000006 0.000004 0.000003 0.000002 0.000002 0.000001 0.000001 0.000001 0.000000 0.000000 0.000000 0.000000 0.000000 0.000000 0.000000 0.000000 0.000000 0.000000 0.000000 0.000000 0.000000 0.000000 0.000000 0.000000 0.000000 0.000000 0.000000 0.000000 0.000000 0.000000 0.000000 0.000000 0.000000 0.000000 0.000000 -0.000000 0.000000 0.000000 0.000000 0.000000 0.000000 0.000000 0.000000 0.000000 0.000000 0.000000 0.000000 0.000000 0.000000 -0.000000 0.000000 0.000000 0.000000 0.000000 0.000000 0.000000 0.000000 0.000000 0.000000 0.000000 0.000000 0.000000 0.000000 0.000000 0.000000 -0.000000 0.000000 -0.000000 -0.000000 -0.000000 -0.000000 -0.000000 -0.000000 -0.000000 -0.000000 -0.000000 -0.000000 -0.000000 -0.000000 -0.000000 -0.000000 -0.000000 -0.000000 -0.000000 -0.000000 -0.000000 -0.000000 -0.000000 -0.000000 -0.000001 -0.000001 -0.000001 -0.000002 -0.000002 -0.000003 -0.000004 -0.000006 -0.000008 -0.000011 -0.000014 -0.000019 -0.000025 -0.000034 -0.000045 -0.000059 -0.000079 -0.000104 -0.000137 -0.000179 -0.000235 -0.000307 -0.000399 -0.000519 -0.000673 -0.000871 -0.001123 -0.001446 -0.001856 -0.002377 -0.003037 -0.003871 -0.004921 -0.006242 -0.007897 -0.009966 -0.012546 -0.015756 -0.019739 -0.024668 -0.030751 -0.038241 -0.047437 -0.058701 -0.072460 -0.089223 -0.109593 -0.134283 -0.164128 -0.200111 -0.243380 -0.295273 -0.357343 -0.431392 -0.519494 -0.624039 -0.747763 -0.893792 -1.065686 -1.267481 -1.503738 -1.779593 -2.100809 -2.473826 -2.905812 -3.404719 -3.979329 -4.639304 -5.395229 -6.258664 -7.242203 -8.359593 -9.626080 -11.059467 -12.683668 -14.540341 -16.739013 -19.475485 -21.191166 0.046746 0.044819 0.039125 0.031563 0.025104 0.019874 0.015687 0.012347 0.009692 0.007586 0.005921 0.004608 0.003576 0.002767 0.002135 0.001643 0.001260 0.000963 0.000734 0.000558 0.000423 0.000319 0.000240 0.000180 0.000135 0.000100 0.000075 0.000055 0.000041 0.000030 0.000022 0.000016 0.000012 0.000008 0.000006 0.000004 0.000003 0.000002 0.000002 0.000001 0.000001 0.000001 0.000000 0.000000 0.000000 0.000000 0.000000 0.000000 0.000000 0.000000 0.000000 0.000000 0.000000 0.000000 0.000000 0.000000 0.000000 0.000000 0.000000 0.000000 0.000000 0.000000 0.000000 0.000000 0.000000 0.000000 0.000000 0.000000 0.000000 -0.000000 -0.000000 0.000000 0.000000 0.000000 0.000000 -0.000000 0.000000 0.000000 0.000000 -0.000000 -0.000000 0.000000 0.000000 -0.000000 -0.000000 0.000000 0.000000 0.000000 -0.000000 0.000000 0.000000 0.000000 0.000000 -0.000000 0.000000 0.000000 0.000000 0.000000 -0.000000 -0.000000 -0.000000 0.000000 -0.000000 -0.000000 -0.000000 -0.000000 -0.000000 -0.000000 -0.000000 -0.000000 -0.000000 -0.000000 -0.000000 -0.000000 -0.000000 -0.000000 -0.000000 -0.000000 -0.000000 -0.000000 -0.000000 -0.000000 -0.000000 -0.000001 -0.000001 -0.000001 -0.000002 -0.000002 -0.000003 -0.000004 -0.000006 -0.000008 -0.000011 -0.000014 -0.000019 -0.000025 -0.000034 -0.000045 -0.000059 -0.000078 -0.000103 -0.000136 -0.000179 -0.000234 -0.000306 -0.000398 -0.000518 -0.000671 -0.000868 -0.001120 -0.001442 -0.001851 -0.002371 -0.003029 -0.003861 -0.004909 -0.006226 -0.007878 -0.009943 -0.012518 -0.015721 -0.019696 -0.024615 -0.030688 -0.038163 -0.047344 -0.058588 -0.072323 -0.089059 -0.109398 -0.134049 -0.163849 -0.199780 -0.242988 -0.294811 -0.356800 -0.430754 -0.518747 -0.623167 -0.746749 -0.892617 -1.064327 -1.265914 -1.501937 -1.777530 -2.098452 -2.471142 -2.902766 -3.401272 -3.975441 -4.634929 -5.390315 -6.253139 -7.235928 -8.352225 -9.616596 -11.044616 -12.652726 -14.457171 -16.462933 -18.599661 -20.148686 -20.729869 0.044721 0.044303 0.041923 0.036814 0.030719 0.024861 0.019828 0.015696 0.012369 0.009714 0.007605 0.005937 0.004621 0.003586 0.002775 0.002142 0.001648 0.001264 0.000966 0.000737 0.000560 0.000424 0.000320 0.000241 0.000181 0.000135 0.000101 0.000075 0.000055 0.000041 0.000030 0.000022 0.000016 0.000012 0.000008 0.000006 0.000004 0.000003 0.000002 0.000002 0.000001 0.000001 0.000001 0.000000 0.000000 0.000000 0.000000 0.000000 0.000000 0.000000 0.000000 0.000000 0.000000 0.000000 0.000000 0.000000 0.000000 0.000000 0.000000 0.000000 0.000000 0.000000 0.000000 0.000000 0.000000 0.000000 0.000000 0.000000 0.000000 0.000000 -0.000000 0.000000 0.000000 0.000000 0.000000 0.000000 0.000000 0.000000 0.000000 0.000000 0.000000 -0.000000 0.000000 0.000000 -0.000000 0.000000 0.000000 0.000000 0.000000 0.000000 0.000000 0.000000 0.000000 0.000000 -0.000000 0.000000 0.000000 0.000000 0.000000 -0.000000 -0.000000 0.000000 -0.000000 -0.000000 -0.000000 -0.000000 -0.000000 -0.000000 -0.000000 -0.000000 -0.000000 -0.000000 -0.000000 -0.000000 -0.000000 -0.000000 -0.000000 -0.000000 -0.000000 -0.000000 -0.000000 -0.000000 -0.000000 -0.000000 -0.000001 -0.000001 -0.000001 -0.000002 -0.000002 -0.000003 -0.000004 -0.000006 -0.000008 -0.000011 -0.000014 -0.000019 -0.000025 -0.000034 -0.000045 -0.000059 -0.000079 -0.000104 -0.000137 -0.000179 -0.000235 -0.000307 -0.000399 -0.000519 -0.000673 -0.000871 -0.001123 -0.001446 -0.001856 -0.002377 -0.003037 -0.003871 -0.004921 -0.006242 -0.007897 -0.009966 -0.012546 -0.015756 -0.019739 -0.024668 -0.030751 -0.038241 -0.047437 -0.058701 -0.072460 -0.089223 -0.109593 -0.134283 -0.164128 -0.200111 -0.243380 -0.295273 -0.357343 -0.431392 -0.519494 -0.624039 -0.747763 -0.893792 -1.065686 -1.267481 -1.503738 -1.779593 -2.100809 -2.473826 -2.905812 -3.404718 -3.979326 -4.639293 -5.395193 -6.258549 -7.241825 -8.358360 -9.622049 -11.046298 -12.640631 -14.400031 -16.274226 -18.096471 -19.575392 -20.305741 -20.476357 -21.191166 -23.850810 -28.850897 -33.888134 -39.110573 -44.660148 -50.590015 -56.931801 -63.709403 -70.942985 -78.649888 -86.844611 -95.538529 -104.739511 -114.451545 -124.674356 -135.403054 -146.627807 -158.333555 -170.499762 -183.100224 -196.102923 -209.469952 -223.157515 -237.116000 -251.290166 -265.619452 -280.038453 -294.477623 -308.864281 -323.124016 -337.182597 -350.968426 -364.415456 -377.466179 -390.073828 -402.202310 -413.821777 -424.897468 -435.369995 -445.126874 -453.967439 -461.566145 -467.444530 -470.982642 -471.568454 -468.828346 -462.661087 -453.478878 -425.753454 -350.413977 -401.518165 -405.324885 -441.933144 -764.839255 -914.618170 -918.309435 -769.818355 -625.195569 -600.805135 -621.233445 -1155.479093 -1406.670427 -1040.558568 -1044.127860 -1662.132824 -2151.449259 -713.347021 -8.100241 908.594978 -361.118471 -163.285014 -9.511833 -167.923856 -640.274687 -1451.964262 -2713.754027 -3152.637357 -1753.644352 529.537649 1597.046241 3706.024893 4273.890510 3349.653466 1234.266305 -63.501922 213.728118 2096.819287 3717.845676 4103.325977 5318.622759 5651.988529 6229.612682 7810.446739 9378.118253 11347.257638 12915.001465 12657.165915 13208.612817 15145.769683 16896.006752 -20.729869 -21.934557 -24.834000 -29.170911 -33.962732 -39.120717 -44.650330 -50.573479 -56.912561 -63.688743 -70.921373 -78.627557 -86.821736 -95.515278 -104.716065 -114.428098 -124.651120 -135.380253 -146.605681 -158.312353 -170.479746 -183.081658 -196.086077 -209.455098 -223.144919 -237.105921 -251.282851 -265.615125 -280.037308 -294.479810 -308.869885 -323.133037 -337.194921 -350.983803 -364.433493 -377.486365 -390.095634 -402.225383 -413.846253 -424.924381 -435.401714 -445.167462 -454.022871 -461.644218 -467.554031 -471.126651 -471.718791 -468.974351 -462.884256 -453.957743 -438.187153 -393.438584 -356.901946 -392.931865 -457.641341 -562.762404 -646.073975 -585.992538 -540.477454 -529.225806 -470.685587 -578.617671 -919.139545 -1248.986195 -1231.014381 -1043.901534 -1152.148401 -1475.297874 -1140.867608 -369.719372 -419.799911 -876.460975 -710.864511 -414.801030 -371.626328 -648.104239 -1174.086542 -1999.472601 -2580.560084 -1915.486215 -711.095569 186.757179 1387.958130 2011.767553 1090.856572 66.286026 -91.522834 599.255109 1730.230337 3437.593793 4834.621087 5846.692132 6641.431281 7486.719454 8535.146150 10488.774393 12665.241822 13730.675389 13681.491078 14206.065037 15852.384788 17519.641466 18168.686773 -20.476357 -20.925240 -22.467952 -25.459505 -29.426885 -34.060656 -39.163570 -44.676365 -50.594980 -56.933321 -63.709869 -70.943128 -78.649931 -86.844625 -95.538533 -104.739512 -114.451546 -124.674357 -135.403054 -146.627807 -158.333555 -170.499762 -183.100224 -196.102923 -209.469952 -223.157515 -237.116000 -251.290166 -265.619452 -280.038453 -294.477623 -308.864281 -323.124016 -337.182597 -350.968426 -364.415456 -377.466180 -390.073828 -402.202311 -413.821781 -424.897483 -435.370056 -445.127115 -453.968305 -461.568778 -467.451582 -470.993407 -471.555576 -468.818990 -462.820448 -453.905800 -442.624984 -424.808529 -403.846311 -407.080131 -430.917959 -468.148781 -513.270572 -517.438122 -514.305775 -526.807146 -568.889038 -703.956174 -889.597150 -1048.586953 -1106.254537 -1110.479335 -1165.230015 -1121.535537 -870.823743 -538.331545 -462.555070 -447.987857 -401.305237 -358.990035 -404.448822 -627.749623 -1039.054608 -1515.106476 -1811.481017 -1654.355363 -1133.333084 -574.426959 -35.287829 187.638806 -89.113498 -278.472135 -81.503199 824.307790 2276.081109 3838.378336 5113.492100 5933.946759 6929.897115 8401.325783 10075.334368 11737.829738 13164.291019 14019.575928 14437.230136 15067.422024 16359.548976 17624.681243 18322.116266 18612.637630 5507.025911 1319.932590 1796.092291 4075.098429 2767.495763 404.970996 4303.938772 3906.591336 5225.860856 3023.548771 6060.685788 4117.166382 3942.942290 6784.146666 8959.185043 5851.551978 7746.898630 12568.519050 13821.629565 15059.681179 3781.496722 3278.198882 2740.993718 1953.894330 4364.850834 3900.004103 2337.585433 2857.606327 5042.885665 7627.782029 3153.568913 6668.057189 7279.628567 5512.629343 5673.806733 11798.210096 8460.059198 10451.702957 12451.474942 12302.303025 3120.225900 3161.565334 2228.246338 4130.531383 530.414304 6339.118201 3113.833060 4516.102807 7006.242268 4663.712941 5364.030234 5059.247101 1346.413327 10222.145579 8310.083702 13026.340078 11953.027468 10166.786722 13527.969206 12286.854786 1862.818503 4398.208257 -43743.461614 3746.169385 8909.454083 2424.511195 3273.923282 4660.857913 6089.945516 9258.138494 11611.524641 1207.419655 4726.618715 8224.355746 7773.641235 11122.964153 6567.116571 12749.985507 10339.984325 10316.764543 2857.208484 5495.264348 -20788.940062 4907.627968 2411.615756 6774.857674 68553.741745 -43599.862690 4219.676873 4867.389883 8034.346134 3345.967058 5469.063046 6086.374293 2582.595244 10312.434586 6455.386695 320.088914 10405.272844 8556.487090 4095.987949 8755.284365 2550.981598 4723.747917 -1049.650196 16432.151600 5453.778651 353.088376 8102.171572 6190.962955 -685.466729 6024.206963 11363.615103 5395.630479 3737.201177 9136.925756 8466.200804 7080.638842 8427.932244 8725.041294 3403.138821 5618.391069 5961.364512 4062.739028 6984.135711 -37458.517410 2515.538550 4213.299684 -8493.824558 -1621.068194 6569.867084 1440.249165 2001.428152 7927.772752 -3302.355159 25235.345497 7845.349833 9964.512164 7026.783155 8087.397262 31078.624832 3970.511329 65761.964399 5641.644807 5664.399375 2606.439395 27994.269501 3632.918070 4365.601417 -1836.324947 5210.523608 2460.076912 6567.361875 -4380.206232 3631.251887 4641.132867 1710.611466 4927.261106 3776.980326 9487.548267 5126.740968 3922.492525 3548.735156 2820.785883 68037.871502 1650.705763 3599.909291 -4061.804181 4228.017785 1770.223960 6966.504644 7504.521842 6092.386045 4034.595303 7706.715489 -276.338601 2499.962494 4728.218666 5779.663908 8664.856743 -8486.289594 8000.495663 3093.650116 8766.522392 5639.402462 66698.662133 43746.753526 -180.210463 4051.254442 1872.724933 13842.543926 -36512.333088 3225.009122 -11810.469674 4649.525866 5173.238004 2770.516954 3553.722678 7036.585970 6196.865772 -1027.252540 491.921509 -44476.026133 5101.911110 5407.527715 4956.395536 5674.948908 5944.303991 -42450.647447 -3544.837060 6692.093614 4001.069520 7017.611169 8035.070252 6376.169841 22950.517201 8257.471370 3916.496312 8614.556602 4329.680373 6151.060637 65510.698733 68338.819572 7380.399533 3198.925355 4672.221152 4774.879795 3024.318578 6834.707441 7982.262268 6215.343121 48830.666741 5119.617555 5153.784349 6854.618449 3372.153130 -2686.270950 2456.752412 3724.620064 -34143.042183 -36218.139691 8726.768716 4749.314670 2085.163442 4847.613080 -43996.143666 2988.040918 6823.140520 2596.369926 6175.868138 4316.235956 6127.842910 6026.186676 4846.870575 10703.761442 4578.898222 -45059.360994 8706.664330 11391.747217 9559.637860 5112.513849 3195.961394 5808.028649 2408.204313 2992.283977 7555.473800 2615.337815 6384.005666 3211.700328 3516.891515 5063.168928 3277.473967 2842.251808 9187.089122 2613.332225 3101.742984 9506.309978 9211.345814 35382.290207 4591.699171 4719.928745 6799.990683 4987.455780 7617.517305 8087.417849 4160.028753 7931.934197 6876.969825 6291.033274 4192.006506 6890.813139 8263.317419 5596.232102 7496.833177 5039.525168 8306.319005 10550.349048 8645.991536 7896.442570 9515.378217 4335.032503 7292.528787 2552.882854 48581.237265 5602.483748 6572.688020 6124.380773 5014.954852 6423.858922 6432.608760 7372.353044 8632.098219 -25559.945961 5532.322261 7591.240075 7980.167952 9418.879974 3067.555936 5929.527401 9460.207111 4802.173964 7371.880651 11656.407408 7226.567215 5174.277048 12992.203447 5736.560840 5528.980632 7032.052975 6754.343905 11921.497034 8563.443367 10584.247351 8285.750818 6852.595970 10619.184460 4374.542709 -892.298224 6772.688516 -38570.037446 8931.111657 4932.021010 3426.246799 4208.485875 5035.100737 5873.200672 11844.725065 9850.287755 9035.313338 7442.658435 5694.428263 12327.217236 5867.930643 12582.435769 10513.291021 10006.531784 3807.240513 10742.461251 8760.170223 -6609.903792 10582.245586 10588.221078 4674.819569 10538.393911 11221.568400 12022.974773 9212.437628 14022.442674 9929.531583 7484.738013 8982.366329 13944.822147 9028.333169 12225.273247 9199.517884 8335.955302 10935.571032 9658.567059 7943.615979 8336.070600 9709.877982 6360.250845 8436.953666 10720.676652 10417.251859 6964.205360 10237.321126 6339.506056 5129.428798 11006.304505 15426.861291 13419.325085 11893.988066 8715.651359 12448.191822 12084.614031 11401.695582 5603.604421 -42258.622594 11383.864791 7339.765753 7656.524079 8335.275140 8639.597622 6698.801105 10202.884285 13722.487280 10484.811268 7719.968196 7763.689378 14366.996779 8520.462343 11461.913021 9133.884516 13031.412505 10880.098179 12817.975506 12069.860961 12608.247549 5658.332268 11944.984954 7852.292892 10823.073179 5672.862578 5786.809937 7396.099324 10969.122449 8178.226989 11500.653485 7843.089009 10946.528605 12014.176757 7981.050858 14421.037504 10782.031707 12992.933306 11916.405387 9658.171779 6341.289738 6518.215333 9097.899005 4982.696294 5338.039484 5977.375253 7508.594118 5750.553100 5799.102216 9366.002493 5615.067561 6523.716570 13278.268184 9461.845941 10718.852728 15406.151878 14154.140352 14423.283144 12895.894690 11841.897095 3057.644334 12550.596254 9599.400324 6911.781425 8222.499470 4298.577233 6578.756878 4154.818871 9423.024696 12252.600230 12231.545921 6980.280435 8527.384645 8071.394642 16496.834337 9861.960917 14468.733612 13028.698088 4431.929002 14969.366885 9417.370652 4478.487562 7085.039820 10628.846460 5900.101594 6879.847374 11301.675655 7320.840706 11562.433559 7906.961753 9944.638672 10684.037349 11810.265513 10574.011593 15810.160311 12351.766090 15886.164328 11954.023445 11998.376258 13738.864437 4195.263715 9048.734792 6628.003875 11906.532574 10685.570359 9471.313291 10166.951272 11157.298470 8459.033305 12791.153270 7622.718506 12490.206545 13137.577444 11312.144405 15304.359153 14283.296858 12357.787536 11160.048968 14660.884932 9318.210882 11772.229651 10047.992369 13985.734218 11706.483847 5843.889346 8843.195370 5050.763883 10741.717635 10250.765765 8388.148403 11607.729713 15486.452112 14129.681797 12180.918143 14109.682128 15178.012216 10220.135020 10123.854387 16326.099620 12078.943138 3549.462143 4138.914220 6102.334082 4673.256540 7775.184723 5802.695844 4954.091998 4992.907798 9479.296864 10792.057731 12846.616445 12286.777649 13705.274542 9573.705560 9233.759400 13080.336968 14123.450338 15075.061271 12009.801187 14482.604181 9262.911120 12184.947267 4499.552487 6084.147832 3972.823370 9008.383529 9949.492674 9447.858447 7729.500873 7621.797463 6447.084952 15241.658301 8036.930653 11317.562343 14944.218517 16337.164951 14273.026836 14312.527025 14279.609271 16684.363250 15342.957377 12136.235728 775.201095 5355.711941 3522.041831 5406.053466 7349.067757 8735.412781 5773.194648 7921.182925 6971.094313 10201.770536 8550.244966 12326.017416 7778.329422 12581.043840 14329.084038 16216.712706 12990.861397 14510.720939 11865.931659 8023.269493 1033.260908 1771.459357 564.882363 4478.251350 2757.302847 6345.627122 7165.529855 8454.196569 6864.123031 8857.431929 7960.429904 6842.328871 10678.609464 10176.878342 12409.405100 14497.587054 11418.389031 15311.021299 8636.646143 11838.253058 1390.863454 2906.941643 566.632799 1811.185689 5909.958909 4075.743069 7631.203075 4960.706048 7107.616516 6688.956330 6890.984796 6225.398618 8211.977997 14096.836768 10648.253567 15421.459703 10990.116638 13665.844034 8409.833931 12089.280428 931.039173 911.422577 2565.203469 1878.216594 2682.175520 6108.241745 4500.801352 5005.155295 6746.710080 7759.938416 6344.962108 8512.924275 15709.435799 9157.413663 10527.200898 14315.903446 12817.852059 12602.962768 9316.480296 12421.083614 1068.578785 1438.041996 2115.247641 860.011043 3300.449177 5570.055676 4751.562633 6643.399588 7528.407762 5631.578729 7645.223583 8297.647430 6794.757203 7936.543173 11698.724221 10658.846645 11358.949586 16481.905572 11572.293342 10725.914324 1328.869145 1315.585765 276.206419 1141.228027 4071.286451 4014.044554 4353.563354 5201.133109 8740.527008 7283.895178 8886.437168 9926.812413 7174.529638 13352.829152 14564.119022 16342.860008 13150.926964 17569.185187 11031.278698 9790.969136 -5265.356325 734.699176 2060.665852 3143.889359 3717.424247 2593.019136 3358.398319 3555.808709 4442.371523 5358.300674 7784.376983 8360.668056 10634.159704 9142.642970 8981.936298 14690.569022 16815.291914 16424.678040 13529.012432 10575.538997 6225.822535 1607.999216 1118.577397 261.100523 3702.617498 3886.639848 3473.152702 4691.860487 7633.952138 5511.956778 7818.079088 8124.666334 8948.212596 10039.927239 9498.103703 13467.705034 15360.543035 15820.243603 9701.080627 15705.374