<VTKFile type="PolyData">
<PolyData>
<Piece NumberOfPoints="6715" NumberOfVerts="6715" NumberOfLines="0" NumberOfStrips="0" NumberOfPolys="0">
<PointData>
<DataArray type="Float64" Name="Pressure" format="ascii">
 5218.765729 5535.995653 6210.372468 5995.111325 6139.843145 6089.280480 4940.998685 2955.336640 2417.638158 3213.770851 4977.259705 6313.445292 6044.996832 -4295.921142 -5271.135331 32179.449087 76295.567078 44238.680409 3525.281353 -13111.583138 -9515.526914 -2490.989332 2098.453567 2791.225191 3230.858750 4605.746672 5642.115034 6028.797049 6074.815622 6650.909121 7687.371488 8823.049459 9780.422617 9739.602184 9524.068540 9301.484979 9688.761647 9966.455538 10060.809589 10524.814208 11139.302197 11092.939397 10955.156292 10979.811097 11134.811478 10660.547965 10184.973175 11284.697868 12297.043553 12767.542453 12167.490157 11720.822011 11591.006070 11503.314129 11770.391381 12873.179560 14477.441979 14900.203857 14743.579809 15090.415693 16171.874399 16499.321370 15460.787935 14277.780306 13875.023824 15422.089126 16515.708242 16495.003343 16219.918631 16127.828326 16615.816512 17152.787918 17664.223922 17684.131586 17806.170013 17912.839809 17280.242122 16270.475402 16060.865139 16209.499217 16087.343574 16174.953333 16417.297506 16564.880069 16463.277555 16390.353066 16543.912685 17322.508198 17878.915338 17867.040281 17834.005029 17628.929040 17346.680858 17916.028549 18625.310335 19060.451904 18971.990179 19141.163660 19190.865439 19514.656313 20228.441898 21199.829821 22536.339155 22589.226595 21660.051884 21199.555246 20884.333405 20488.286438 20465.493435 20783.857687 21067.137043 21142.675641 21611.689884 22375.395183 23156.601833 23752.861801 23509.798574 22631.751000 22030.053788 22463.697541 23408.536268 23901.662407 24357.648792 24062.233714 24267.840211 25194.380003 25835.479163 25159.999644 24489.801235 24432.915279 24826.387802 24736.408034 24292.216630 24601.796999 25019.116991 25379.648414 25779.610818 25366.671927 24085.872306 24110.015488 24519.042118 24597.090210 25069.610622 25569.481612 25352.564227 24716.603606 24032.736983 23943.023822 23295.555186 22857.231711 23127.940996 22512.886176 22386.293441 21901.841565 21600.853813 21407.524828 20888.429803 20834.888268 21065.324118 20659.710190 20339.853030 20866.067129 21190.626038 20600.822599 19026.440974 18186.072373 17979.367527 18328.472433 18327.961680 18179.385875 17764.820951 17180.295527 17222.342682 16637.982860 16738.682711 16529.930216 16265.145592 16084.668901 15991.210256 15870.376208 15712.450283 15641.321681 15624.460854 15493.950974 15118.018683 14915.699291 14776.178917 14623.919172 14491.355790 14166.422315 13897.249228 14080.301569 14436.146536 14666.701711 14266.093787 13689.311439 13565.426713 13307.577129 13033.702166 12827.957249 12485.695023 4445.835702 4700.124947 5072.262096 5810.985913 6221.991047 6177.277405 6196.994863 5638.226707 4368.787742 3358.728992 2770.187818 3433.382984 4484.067187 4588.260010 616.071731 -5276.876987 -3332.450851 2685.391055 2885.074715 -3005.809046 -5627.455623 -2350.442118 1243.459426 2517.383510 2162.015858 2736.224761 3899.757778 5046.276260 5837.046291 6200.185142 6606.601676 7681.109642 9056.887553 9889.637846 9933.252700 9740.004054 9740.022780 9763.551741 9948.906574 10237.389816 10672.114024 11000.837250 10946.766558 10895.918342 10985.814014 11023.915941 10748.006218 10634.308467 11298.216594 11999.496831 12403.948385 12359.641212 12026.336530 11961.844668 12087.143977 12450.134024 13282.634839 14380.792634 15010.326415 15194.654591 15451.131549 16027.048066 16312.030126 15835.301805 15262.756895 15417.107848 16288.209788 16936.129478 17080.717775 17032.279808 16935.021910 16938.225288 17287.357408 17669.001376 17720.466167 17756.761555 17724.058315 17364.023650 16825.824643 16508.110541 16439.861814 16473.433451 16518.955649 16634.530063 16703.835002 16597.129497 16448.702383 16655.109481 17250.366120 17719.464375 17705.838021 17626.465478 17672.554766 17700.838320 18135.261266 18841.988365 19212.479413 19351.425831 19596.385800 19786.555357 20073.559939 20748.843316 21586.171744 22121.972752 22097.923152 21677.325227 21590.825953 21834.328314 21792.311770 21718.358997 21860.266693 21719.017425 21674.655067 22272.545720 23071.466165 23551.963455 23532.895627 23267.653689 22938.641285 22690.492319 22892.457247 23485.163165 24021.132257 24358.592567 24195.895257 24380.411356 25224.089797 26015.498468 25690.839391 24859.662588 24644.139484 25054.451916 25278.650148 24928.619966 24773.181952 24838.829801 25197.905601 25416.416236 25041.267248 24473.046308 24363.812140 24407.020033 24586.623533 24930.861015 25080.330831 24785.764857 24382.997857 23824.539937 23406.246570 23256.596365 22922.918319 22689.941151 22595.301865 22246.747158 21726.823115 21386.668832 21153.553142 20877.211799 20740.005460 20758.992051 20629.367495 20545.104253 20892.175558 21229.092825 20616.798552 19411.040099 18639.668290 18271.024407 18190.675110 18158.698789 17826.678100 17247.363092 16687.990374 16681.328770 16888.489540 16801.901217 16541.098721 16365.933873 16119.903307 15934.287139 15789.897536 15654.438071 15593.212571 15612.215242 15572.129279 15306.420311 15000.927559 14784.169461 14616.163737 14479.368411 14321.140943 14095.684344 13999.538277 14080.328886 14121.462246 13996.459972 13743.214302 13448.016152 13167.608650 12848.624318 12572.647936 12448.513624 12397.124639 4208.303639 4284.116630 4471.918580 4779.167747 5221.410173 5614.793164 5701.988978 5597.209039 5127.608148 4448.166328 4113.800221 3754.502084 3322.355783 2947.497489 2850.997449 2885.999403 2148.068712 815.517316 1085.477625 1193.425016 516.046081 911.537617 1193.947199 1075.804919 1043.891166 1497.003503 2508.007236 3678.125862 4774.446089 5692.327299 6312.243792 6900.827317 7781.832172 8771.407084 9405.144884 9576.712211 9561.346153 9635.310619 9748.143424 9869.981723 10070.851713 10346.264065 10563.026416 10691.516133 10808.211499 10989.687204 11135.055602 11207.914673 11347.464919 11576.805889 11844.366085 12090.508306 12225.877386 12230.411578 12279.685481 12451.270275 12817.698537 13443.095618 14189.982237 14835.200754 15275.514192 15647.057543 16013.036259 16180.910422 16020.523265 15854.298638 16041.815789 16507.855295 16978.258694 17239.327832 17305.977042 17267.423644 17207.808447 17308.269232 17456.527836 17485.499188 17464.224881 17389.169070 17202.345937 16947.362775 16757.340535 16678.124001 16652.531732 16632.107830 16650.586940 16671.494753 16621.274435 16606.854974 16795.531865 17153.096230 17480.664902 17604.105801 17647.136668 17770.309119 17966.400876 18301.031339 18746.474020 19097.308780 19374.953071 19672.963715 19997.002274 20320.526398 20751.799617 21250.951205 21598.862530 21731.307605 21676.498019 21697.864188 21902.004056 21988.560854 22001.854232 22039.601768 22022.129105 22086.440895 22397.371552 22809.012249 23134.598654 23247.879850 23133.217371 22973.362020 22990.292606 23230.589684 23660.865362 24048.403454 24206.805027 24283.177801 24534.713692 25009.524665 25439.651348 25540.295206 25187.094570 25069.947943 25138.770810 25146.501099 25017.855755 24883.769456 24916.281706 25090.201182 25135.995751 24950.580780 24749.199855 24602.058550 24537.480451 24567.457859 24588.317113 24493.507569 24266.401284 23961.800522 23578.326104 23170.385154 22901.516227 22652.800250 22397.465975 22205.523207 21874.733589 21516.618544 21214.453266 20943.101085 20718.713795 20549.589844 20443.930091 20364.844088 20380.671700 20563.042162 20604.750398 20152.643160 19479.585797 18907.262025 18482.813113 18156.362684 17985.312328 17731.374760 17301.161366 16933.837851 16720.285271 16675.459451 16583.344610 16495.686633 16354.216556 16140.987648 15938.594338 15788.476152 15660.785755 15567.427337 15514.503346 15399.815868 15167.413919 14887.821257 14646.026525 14459.387211 14323.563429 14207.617177 14063.330235 13944.864527 13913.659922 13854.964076 13705.147959 13452.997815 13163.679424 12929.117456 12727.717233 12559.294407 12448.843043 12394.675426 12381.708929 12485.695023 12687.298276 12661.019198 12539.401236 12271.888133 11774.694281 11258.124941 10825.993765 10219.090102 9503.359506 8891.947531 8474.497183 7926.458957 7113.051059 6491.241622 6088.939794 5462.697125 4853.415678 4609.654509 4560.666542 4532.539155 4368.595005 4323.095386 4115.374836 4004.272866 3945.571916 3848.330256 3731.022503 3598.786217 3454.080917 3299.269796 3137.141847 2970.753943 2803.084015 2636.818692 2474.220771 2317.069103 2166.658050 2023.837614 1889.075888 1762.530248 1644.118301 1533.583121 1430.549740 1334.571742 1245.167942 1161.849967 1084.141912 1011.593408 943.787447 880.344173 820.921734 765.215070 712.953381 663.896824 617.832864 574.572595 533.947208 495.804766 460.007337 426.428522 394.951373 365.466681 337.871604 312.068590 287.964556 265.470275 244.499942 224.970878 206.803330 189.920361 174.247790 159.714165 146.250762 133.791594 122.273421 111.635749 101.820829 92.773640 84.441860 76.775825 69.728474 63.255288 57.314214 51.865583 46.872024 42.298371 38.111564 34.280553 30.776195 27.571156 24.639804 21.958104 19.503475 17.254570 15.190751 13.290554 11.526936 9.844887 8.189051 7.312473 12397.124639 12394.156699 12372.081297 12367.101609 12276.937729 11920.138815 11448.825398 11049.817354 10651.604370 10108.233396 9436.635015 8855.145310 8351.037509 7735.933439 7075.472792 6532.136418 6042.766013 5546.791317 5125.769860 4862.450666 4694.158733 4609.807837 4509.988082 4303.376036 4130.384407 4039.917886 3954.624527 3851.107558 3732.190099 3599.506571 3454.619941 3299.645011 3137.364446 2970.835534 2803.040546 2636.670334 2473.989880 2316.777869 2166.326772 2023.483734 1888.713617 1762.170575 1643.769254 1533.250156 1430.236194 1334.279278 1244.896962 1161.599975 1083.911810 1011.381739 943.592574 880.164417 820.755466 765.060773 712.809683 663.762517 617.706905 574.454097 533.835429 495.699092 459.907265 426.333640 394.861345 365.381232 337.790507 311.991655 287.891616 265.401184 244.434567 224.909091 206.745010 189.865389 174.196046 159.665528 146.205111 133.748808 122.233376 111.598323 101.785899 92.741086 84.411562 76.747665 69.702337 63.231063 57.291792 51.844861 46.852903 42.280754 38.095361 34.265677 30.762564 27.558697 24.628455 21.947831 19.494335 17.246895 15.185779 13.292560 11.550477 9.949487 8.511717 7.554853 7.158164 12381.708929 12374.283521 12352.965030 12305.949618 12224.805316 12054.329147 11759.558919 11378.402107 10959.397160 10497.674631 9968.037361 9384.674644 8813.870720 8262.591694 7690.229566 7117.676052 6587.651551 6092.587411 5644.999260 5265.976802 4990.304028 4790.824222 4643.507804 4496.847389 4323.188070 4174.460869 4062.194431 3960.563115 3852.350038 3732.058771 3599.066837 3454.185980 3299.306064 3137.153380 2970.757354 2803.085002 2636.818999 2474.220874 2317.069138 2166.658062 2023.837617 1889.075889 1762.530248 1644.118302 1533.583121 1430.549740 1334.571742 1245.167942 1161.849967 1084.141912 1011.593408 943.787447 880.344173 820.921734 765.215070 712.953381 663.896824 617.832864 574.572595 533.947208 495.804766 460.007337 426.428522 394.951373 365.466681 337.871604 312.068590 287.964556 265.470275 244.499942 224.970878 206.803330 189.920361 174.247790 159.714165 146.250762 133.791594 122.273421 111.635749 101.820829 92.773640 84.441860 76.775825 69.728474 63.255288 57.314214 51.865583 46.872024 42.298371 38.111565 34.280554 30.776200 27.571170 24.639851 21.958255 19.503971 17.256193 15.196058 13.307919 11.583533 10.034128 8.717494 7.729514 7.221348 7.073635 7.312473 6.753802 5.864331 5.150655 4.547433 4.018218 3.549001 3.131788 2.760741 2.430987 2.138230 1.878614 1.648655 1.445208 1.265430 1.106758 0.966879 0.843718 0.735404 0.640264 0.556794 0.483651 0.419635 0.363674 0.314814 0.272204 0.235091 0.202804 0.174749 0.150401 0.129295 0.111023 0.095222 0.081576 0.069804 0.059661 0.050933 0.043431 0.036990 0.031468 0.026740 0.022695 0.019239 0.016290 0.013778 0.011639 0.009820 0.008276 0.006967 0.005857 0.004919 0.004126 0.003457 0.002893 0.002418 0.002018 0.001683 0.001402 0.001166 0.000969 0.000804 0.000666 0.000551 0.000456 0.000376 0.000310 0.000256 0.000210 0.000173 0.000142 0.000116 0.000095 0.000077 0.000062 0.000050 0.000040 0.000032 0.000025 0.000019 0.000014 0.000009 0.000005 0.000001 -0.000003 -0.000007 -0.000012 -0.000016 -0.000022 -0.000028 -0.000035 -0.000044 -0.000054 -0.000066 -0.000081 -0.000099 -0.000120 -0.000146 -0.000176 -0.000213 -0.000257 -0.000309 -0.000372 -0.000448 -0.000537 -0.000644 -0.000771 -0.000922 -0.001101 -0.001313 -0.001565 -0.001861 -0.002212 -0.002625 -0.003112 -0.003684 -0.004357 -0.005145 -0.006069 -0.007149 -0.008411 -0.009884 -0.011601 -0.013599 -0.015921 -0.018616 -0.021741 -0.025359 -0.029542 -0.034373 -0.039944 -0.046360 -0.053739 -0.062217 -0.071942 -0.083084 -0.095833 -0.110402 -0.127027 -0.145974 -0.167539 -0.192052 -0.219878 -0.251423 -0.287138 -0.327519 -0.373115 -0.424532 -0.482436 -0.547557 -0.620698 -0.702736 -0.794630 -0.897426 -1.012263 -1.140380 -1.283118 -1.441932 -1.618393 -1.814197 -2.031169 -2.271270 -2.536605 -2.829423 -3.152132 -3.507292 -3.897632 -4.326046 -4.795597 -5.309524 -5.871240 -6.484337 -7.152580 -7.879912 -8.670448 -9.528472 -10.458431 -11.464932 -12.552727 -13.726709 -14.991895 -16.353416 -17.816497 -19.386442 -21.068612 -22.868403 -24.791222 -26.842460 -29.027462 -31.351499 -33.819736 -36.437201 -39.208765 -42.139148 -45.233044 -48.495582 -51.933956 -55.562928 -59.422820 -63.659317 -68.512087 -71.386560 7.158164 6.970126 6.467562 5.774318 5.123618 4.537446 4.013487 3.546025 3.129500 2.758804 2.429285 2.136716 1.877262 1.647448 1.444131 1.264470 1.105902 0.966119 0.843042 0.734805 0.639732 0.556324 0.483236 0.419269 0.363351 0.314530 0.271954 0.234871 0.202611 0.174580 0.150253 0.129167 0.110911 0.095124 0.081491 0.069730 0.059597 0.050877 0.043382 0.036949 0.031432 0.026708 0.022668 0.019216 0.016271 0.013761 0.011624 0.009808 0.008266 0.006958 0.005850 0.004912 0.004120 0.003452 0.002889 0.002414 0.002015 0.001680 0.001399 0.001164 0.000967 0.000802 0.000665 0.000551 0.000455 0.000376 0.000310 0.000255 0.000210 0.000172 0.000141 0.000116 0.000094 0.000077 0.000062 0.000050 0.000040 0.000032 0.000025 0.000019 0.000014 0.000009 0.000005 0.000001 -0.000003 -0.000007 -0.000012 -0.000016 -0.000022 -0.000028 -0.000035 -0.000044 -0.000054 -0.000066 -0.000081 -0.000099 -0.000120 -0.000145 -0.000176 -0.000213 -0.000256 -0.000309 -0.000372 -0.000447 -0.000536 -0.000643 -0.000770 -0.000921 -0.001100 -0.001312 -0.001562 -0.001859 -0.002209 -0.002622 -0.003108 -0.003680 -0.004351 -0.005139 -0.006061 -0.007141 -0.008402 -0.009873 -0.011588 -0.013584 -0.015904 -0.018597 -0.021719 -0.025333 -0.029513 -0.034339 -0.039905 -0.046316 -0.053690 -0.062160 -0.071878 -0.083011 -0.095751 -0.110308 -0.126921 -0.145855 -0.167405 -0.191901 -0.219709 -0.251233 -0.286925 -0.327281 -0.372850 -0.424237 -0.482107 -0.547192 -0.620293 -0.702287 -0.794133 -0.896877 -1.011659 -1.139714 -1.282386 -1.441128 -1.617512 -1.813233 -2.030115 -2.270120 -2.535352 -2.828061 -3.150652 -3.505688 -3.895896 -4.324170 -4.793573 -5.307344 -5.868897 -6.481822 -7.149885 -7.877029 -8.667369 -9.525189 -10.454939 -11.461222 -12.548794 -13.722546 -14.987498 -16.348780 -17.811619 -19.381318 -21.063242 -22.862785 -24.785358 -26.836350 -29.021110 -31.344909 -33.812910 -36.430134 -39.201421 -42.131397 -45.224429 -48.484586 -51.915574 -55.520477 -59.300099 -63.235077 -67.187564 -69.977699 -71.074947 7.073635 7.018746 6.782543 6.303393 5.712786 5.104960 4.533434 4.013939 3.547693 3.131388 2.760619 2.430950 2.138219 1.878610 1.648654 1.445208 1.265430 1.106757 0.966879 0.843718 0.735404 0.640264 0.556794 0.483651 0.419635 0.363674 0.314814 0.272204 0.235091 0.202804 0.174749 0.150401 0.129295 0.111023 0.095222 0.081576 0.069804 0.059661 0.050933 0.043431 0.036990 0.031468 0.026740 0.022695 0.019239 0.016290 0.013778 0.011639 0.009820 0.008276 0.006967 0.005857 0.004919 0.004126 0.003457 0.002893 0.002418 0.002018 0.001683 0.001402 0.001166 0.000969 0.000804 0.000666 0.000551 0.000456 0.000376 0.000310 0.000256 0.000210 0.000173 0.000142 0.000116 0.000095 0.000077 0.000062 0.000050 0.000040 0.000032 0.000025 0.000019 0.000014 0.000009 0.000005 0.000001 -0.000003 -0.000007 -0.000012 -0.000016 -0.000022 -0.000028 -0.000035 -0.000044 -0.000054 -0.000066 -0.000081 -0.000099 -0.000120 -0.000146 -0.000176 -0.000213 -0.000257 -0.000309 -0.000372 -0.000448 -0.000537 -0.000644 -0.000771 -0.000922 -0.001101 -0.001313 -0.001565 -0.001861 -0.002212 -0.002625 -0.003112 -0.003684 -0.004357 -0.005145 -0.006069 -0.007149 -0.008411 -0.009884 -0.011601 -0.013599 -0.015921 -0.018616 -0.021741 -0.025359 -0.029542 -0.034373 -0.039944 -0.046360 -0.053739 -0.062217 -0.071942 -0.083084 -0.095833 -0.110402 -0.127027 -0.145974 -0.167539 -0.192052 -0.219878 -0.251423 -0.287138 -0.327519 -0.373115 -0.424532 -0.482436 -0.547557 -0.620698 -0.702736 -0.794630 -0.897426 -1.012263 -1.140380 -1.283118 -1.441932 -1.618393 -1.814197 -2.031169 -2.271270 -2.536605 -2.829423 -3.152132 -3.507292 -3.897632 -4.326046 -4.795597 -5.309524 -5.871240 -6.484337 -7.152580 -7.879912 -8.670448 -9.528472 -10.458431 -11.464932 -12.552727 -13.726709 -14.991895 -16.353416 -17.816497 -19.386442 -21.068612 -22.868403 -24.791222 -26.842459 -29.027460 -31.351494 -33.819719 -36.437145 -39.208581 -42.138549 -45.231093 -48.489229 -51.913264 -55.495508 -59.203758 -62.934160 -66.403458 -69.152902 -70.542657 -70.903198 -71.386560 -74.894776 -81.260007 -87.380531 -93.454356 -99.637546 -105.965561 -112.444718 -119.071900 -125.840670 -132.743109 -139.770396 -146.913005 -154.160789 -161.503038 -168.928534 -176.425605 -183.982191 -191.585910 -199.224120 -206.883989 -214.552543 -222.216703 -229.863300 -237.479048 -245.050483 -252.563859 -260.005007 -267.359180 -274.610919 -281.744004 -288.741586 -295.586577 -302.262415 -308.754217 -315.050227 -321.143225 -327.031256 -332.716784 -338.203272 -343.488948 -348.559863 -353.389742 -357.961902 -362.328423 -366.721550 -371.683481 -378.141588 -386.803853 -397.357715 -445.596366 -477.480694 -319.169699 -18.333837 11.225031 -405.619118 -628.768963 -494.941566 -301.059863 -362.394499 -570.692040 -732.269750 -687.314168 -547.959509 -250.938986 509.271453 977.473659 864.857245 -275.896858 -1746.611286 -1776.401493 -945.400903 -648.296179 -583.733843 -1381.929170 -2350.301384 -2122.056703 -1042.795633 106.911738 -54.300674 -451.837892 -681.631488 -135.583883 -60.705275 494.462622 1022.361892 1476.302571 1031.951983 372.462448 462.168778 1228.045456 1754.464423 2787.892969 4076.608436 5168.980454 6476.504990 6319.370047 5969.080518 5713.574466 5392.607826 5218.765729 -71.074947 -72.593217 -76.290829 -81.714038 -87.498485 -93.484401 -99.641516 -105.961868 -112.438912 -119.065696 -125.834614 -132.737389 -139.765090 -146.908155 -154.156425 -161.499185 -168.925212 -176.422834 -183.979985 -191.584280 -199.223077 -206.883538 -214.552688 -222.217450 -229.864653 -237.481014 -245.053076 -252.567098 -260.008919 -267.363798 -274.616279 -281.750139 -288.748510 -295.594271 -302.270805 -308.763161 -315.059514 -321.152597 -327.040486 -332.725794 -338.212285 -343.498566 -348.570828 -353.401936 -357.972477 -362.330479 -366.698190 -371.616049 -378.041770 -387.052096 -398.351868 -421.652614 -474.194833 -478.486151 -367.008031 -313.224559 -419.739939 -491.130364 -460.974223 -416.422372 -457.291545 -620.026884 -762.519153 -675.382063 -358.909266 51.244279 518.389434 983.837623 1213.860202 826.893257 60.726071 -234.145955 -149.536673 -104.853167 -387.973113 -796.862269 -1134.519736 -962.217307 -331.040091 -64.946003 -126.585571 -273.425369 -489.996089 -322.962958 141.516381 499.245042 1110.287239 1474.453240 1122.642424 570.301861 595.439534 1173.524918 1755.097667 2515.387745 3559.179709 4532.072815 5124.654970 5127.285036 5273.343075 5524.023216 5472.582646 4970.287209 4445.835702 -70.903198 -71.452179 -73.390265 -77.156259 -82.059291 -87.621080 -93.528424 -99.660274 -105.972539 -112.446860 -119.072558 -125.840872 -132.743171 -139.770415 -146.913011 -154.160791 -161.503039 -168.928534 -176.425605 -183.982191 -191.585910 -199.224120 -206.883989 -214.552543 -222.216703 -229.863300 -237.479048 -245.050483 -252.563859 -260.005007 -267.359180 -274.610919 -281.744004 -288.741586 -295.586577 -302.262415 -308.754217 -315.050228 -321.143226 -327.031259 -332.716790 -338.203287 -343.488973 -348.559843 -353.389450 -357.961145 -362.328274 -366.717917 -371.679697 -378.190516 -387.497414 -400.130560 -416.020004 -438.949953 -457.770567 -443.451884 -422.781729 -425.209951 -426.291768 -429.508084 -460.448672 -529.944607 -630.235845 -698.558393 -660.600148 -451.786135 -83.686321 406.032907 971.142331 1405.236691 1477.723737 1214.559692 840.391557 555.096114 272.734400 -83.147794 -397.516998 -581.559372 -534.300514 -322.285347 -176.750555 -133.569955 -167.110088 -207.196327 -86.369122 216.638587 562.974477 1000.102042 1168.899851 921.164001 637.306683 813.875774 1317.769294 1864.924386 2573.609605 3391.951432 4205.524567 4720.033842 4937.037120 5074.921601 5275.613534 5218.472398 4696.025404 4310.181707 4208.303639 604.053735 136.550149 3724.889083 -378.722511 2343.716466 1377.588149 559.746978 537.829601 18.159233 497.286309 1547.505317 -478.693348 4906.012451 4340.785182 4079.190638 1508.116739 7056.131448 5732.618578 5602.312397 5676.028202 1402.465495 -14.369940 -94.354511 3397.348029 1266.607612 4662.463442 -1582.740969 40603.459840 840.001745 3295.924240 99.593935 1470.697510 2099.016272 -559.204902 1599.379817 6293.163945 3242.815561 1374.117585 5864.209184 5286.147754 5600.140445 200.158710 801.633994 1122.410876 3539.362121 2349.298292 5155.061040 3243.977655 915.770936 -626.171970 2343.155501 1779.028117 -13842.012344 7072.503760 2421.830336 5758.463115 2174.311087 5301.307939 5907.330341 6615.870200 -1971.917324 1770.371260 -1451.394611 4069.802655 1193.974001 3065.485948 1216.869718 130.735949 -168.577354 3644.553888 5710.141447 -5615.477649 1889.958330 121.669087 4192.255654 5146.813883 6548.667353 5705.522403 6388.383924 6143.895450 -3198.535630 -12482.380234 1281.044538 2269.593999 12923.794781 3764.364937 35581.795234 -9557.356278 6102.639232 794.834945 2284.529551 2066.533371 3367.415984 2043.612423 -6190.880558 4965.096750 1091.389828 -2806.897593 4556.760780 4520.382784 5526.618480 5216.652262 -12761.370427 4851.802782 2960.952561 2518.425051 8004.510131 23864.336022 1983.965154 3024.731006 4947.065732 2251.035938 7127.403980 2599.105028 -9154.199932 7538.601232 177.534722 921.419687 2219.616546 5088.298636 14776.041024 463.928599 6739.215496 4026.313940 3686.375009 222.957590 9195.358650 2099.052383 106719.366475 50781.408445 1500.633188 3554.135787 4067.726510 2094.317198 -8751.530703 8840.861802 3758.196269 2605.035596 2368.281292 2987.272090 42167.897353 -10359.291575 110015.453169 10843.574414 7113.781335 632.642138 7759.353671 8100.647759 6717.549825 12236.113780 1951.812422 5660.745988 2580.433127 146914.557080 3892.597794 3061.171697 88976.034574 4501.480138 -1322.799291 2814.550001 8838.903871 5805.857156 6329.526597 35775.506390 3225.975927 6721.103499 8499.718618 -8542.908609 2574.426490 3432.780646 88720.414423 677.642563 4463.979385 5474.555932 2409.174222 -3240.851503 2090.082578 1801.140646 4927.201438 5197.338685 -14336.139216 9817.390643 5380.941435 10130.974613 3695.416460 -1047.942955 134448.238759 -3417.959592 7085.138034 9736.483597 -3306.434517 -5572.708165 8063.292620 48934.333825 6839.449633 4583.868706 -8661.714436 3633.413910 10247.069629 2107.379097 -5830.829270 3216.973664 6630.113735 7980.865752 6201.193436 7664.580124 -3276.898502 8202.531729 263.202594 138080.158589 8857.504406 8718.044782 3172.085259 11253.519288 8983.744216 114390.322713 2577.857300 4197.422904 3937.574197 9623.092322 7681.591022 -627.376962 42923.544365 9314.221225 4691.240679 6137.433880 9143.117360 4207.134768 8245.760997 11565.855631 9902.969982 -13338.590408 7059.522435 6745.226496 10708.171491 7592.904310 11560.700408 2094.551205 7463.152778 -14273.328204 149011.962412 9534.092067 7283.867374 2933.562341 6349.368630 65716.046610 9310.652581 11068.339616 8573.918143 7536.244926 8223.536350 8639.984943 7223.218350 8578.486542 8146.589823 8519.682505 -8552.861081 10654.470543 10633.944132 8807.032838 6237.080756 5542.236253 7250.681565 7857.517978 3253.463303 8513.090441 9865.822124 6938.312366 6047.149168 9586.098496 3780.086988 8642.224448 9625.250118 9026.303717 7080.613945 4743.913238 10667.597043 11395.686285 -1964.590425 6337.259159 7899.453669 8822.073827 6904.927239 8310.360458 8990.408598 6032.986637 11260.385485 6888.537827 8232.037236 7261.689275 7608.473610 7041.032667 7504.809458 8936.809722 6282.070215 8992.731810 10422.450569 10564.005694 10364.597219 10768.063313 8257.944125 8196.681541 4507.215548 2754.178663 7542.436258 6739.023408 9449.702519 7490.291226 7647.145517 8554.376755 8371.575958 10127.311353 -985.714308 6760.515072 6765.908266 7038.151928 9999.378342 3969.794460 8014.380827 12388.060948 6499.866300 8919.452564 11721.128587 7353.007403 7899.855454 -1077.058261 7663.153778 7649.114632 9541.022572 8036.426781 10656.562937 10487.276600 10956.169735 8568.499157 7709.330515 12296.919383 5788.822634 -9470.297873 141168.302864 103811.812196 8300.955239 9559.270910 5147.498338 6092.027311 5780.483616 7988.486833 11850.689536 10668.544771 11381.845249 9804.445981 7816.460113 10013.714424 9693.692856 11744.932962 10129.731606 10442.607009 4645.866050 12086.355253 10333.278914 29300.284847 10428.992327 11141.454267 7481.781946 10546.914251 10792.380678 11652.067376 12392.158262 13040.363470 9173.109227 7924.061967 8265.550057 13713.085018 9052.734656 10555.448689 9580.139978 9135.594550 11160.820091 8691.611248 10337.972684 8175.799047 10797.710638 7251.136147 10202.705540 12375.134693 10639.659167 9276.168884 10833.712884 7857.484291 6742.938073 13063.439237 14437.880749 12646.025998 12056.327347 11399.227830 11582.746814 11857.847078 10886.222593 8406.930056 148358.861432 907.995922 9716.081699 6890.422620 12335.606946 8536.281498 7720.380971 11983.507144 13074.918323 8524.306156 9053.691358 10271.469263 11653.020530 8212.985168 14122.755157 7848.858343 13601.835712 11353.988835 11585.012045 11619.026170 10896.477853 8016.490098 12647.261254 8423.345379 9895.419690 5952.081380 6280.298911 9211.114166 11123.030891 8956.431844 11593.981581 9318.262260 10787.723408 11093.012018 8621.878439 14249.890141 12705.947176 11901.116756 11340.157450 8637.216367 10645.697624 1450.624017 10827.749952 6136.318849 7992.451949 6278.206329 8135.809694 7849.728187 7417.319810 11872.397419 5371.735721 7368.091084 15208.786091 7715.191627 11862.056955 14262.789115 10777.442003 13152.647190 12021.434838 11082.965050 3369.867994 11145.927651 11965.940269 9376.683208 7943.482614 6765.864951 10227.466398 6292.838104 9663.877041 12185.660270 12599.632262 7348.440414 9835.715596 9382.843097 11798.688699 11989.760116 13348.376039 12559.513803 6864.013655 14785.100480 9020.559591 4670.213753 9475.677886 15217.590116 10192.389712 9820.713953 14035.881993 7555.827842 14973.199340 10116.216760 11867.592226 13122.967693 13189.729255 11772.361441 13241.409139 11662.592356 13695.218215 10330.157065 10883.017240 13163.718716 7050.658772 11284.283145 8814.033339 12588.507865 13353.297670 13252.807530 9619.821356 13677.471254 11354.292702 15418.649645 10343.778627 15384.226637 14761.146386 12220.007721 13279.192395 13220.881333 12507.084726 10041.488804 15242.098514 9338.872298 9781.340597 10287.160948 16317.206516 14096.626035 8155.893041 14094.241615 7634.756846 11820.684521 12175.800095 7555.503080 13619.229472 13261.622518 14023.876214 10966.711959 12330.169261 14284.741509 10550.290891 12330.353124 13602.176775 10073.632421 7942.093645 6630.583406 10244.112057 8476.673492 9462.962318 10515.067885 8643.147764 9519.900778 12304.523476 11615.354101 14666.634222 13637.664349 13649.160778 11425.328142 10168.063926 15287.998175 15156.175420 11478.301476 11337.135109 13909.908610 9740.110553 12053.256726 7898.520413 7439.855877 5822.855005 10572.797126 13265.687239 10513.778719 11720.072698 12076.976856 7859.437896 16011.371167 9289.960135 15442.777431 16323.030401 13816.700536 14561.762014 15852.704764 15348.443018 14294.040044 14642.885046 13357.828554 1858.412241 7103.973550 3168.346348 7741.485824 12369.989602 12295.119020 9219.542279 10961.572689 9861.341948 9182.067437 12890.152307 13537.732969 9534.935643 12053.935385 11773.592520 14038.462155 14481.886181 10900.366505 11668.722746 8629.032274 1502.629334 2160.860818 1459.741591 5825.714021 3690.087802 8667.584192 9657.559917 13651.348083 7056.440414 10159.994720 8833.376150 9935.483553 11905.386687 10240.158220 14342.092872 16336.973993 11532.743097 14163.723626 9571.466320 11741.462725 2685.195764 5163.996270 3174.635516 915.728680 11176.062096 5326.364268 8406.082709 9201.207284 7456.323671 10376.944621 6003.204859 10629.363124 8200.598430 14577.061727 10597.047041 15488.499000 12488.690620 11571.393054 10755.277303 11234.032362 2595.524183 2449.549657 2159.210707 2662.128955 3615.458342 6042.362563 7491.038658 7623.207254 7243.988530 7688.055698 6569.721290 8724.410812 15590.649755 9550.451915 10647.611796 14150.740331 12124.933711 11885.499779 10241.210328 10985.476880 2313.495539 1682.113560 5149.847939 1448.512463 4433.052431 6796.498135 4781.439169 4931.218711 7152.038931 6139.614747 9505.910468 9298.967931 8615.856593 8397.095169 13052.295929 11132.163629 11269.134144 13934.760198 8962.347264 8941.613827 2310.299190 846.729120 1935.062921 2661.785351 5203.503207 4143.886492 7191.185825 9724.012798 7254.832054 7924.223064 9050.228808 10780.732109 11479.481200 13479.716664 13395.292626 14998.326953 11772.933133 15636.401791 12370.055357 12414.069433 940.084827 6347.990806 4308.486737 2530.432750 2212.820815 1647.407082 2256.457224 5042.985981 5159.962177 5191.701920 12613.385375 8258.738036 11597.684256 8029.090774 11176.933986 14558.544596 11456.194861 13921.221665 12517.111703 10