<VTKFile type="PolyData">
<PolyData>
<Piece NumberOfPoints="6715" NumberOfVerts="6715" NumberOfLines="0" NumberOfStrips="0" NumberOfPolys="0">
<PointData>
<DataArray type="Float64" Name="Pressure" format="ascii">
 18652.201686 17688.371200 16681.020377 16270.134066 16659.259295 16934.481926 17091.906276 17123.570290 16469.190518 15122.102374 15286.141098 16973.349411 20475.977156 24631.176351 25330.297584 25518.048443 27745.270855 22163.788925 18331.681791 17074.651499 16878.056886 18142.516895 19372.672162 18410.037245 16797.936080 15777.811312 15181.886336 15412.156424 16259.972720 16293.301573 16697.810039 17983.148832 18993.716613 19049.311196 18199.501132 18269.287845 20610.391783 21920.329876 19321.238033 16910.119811 17138.726598 19919.716107 22797.657167 23854.132817 22840.949714 21468.842075 19842.822527 19393.221878 18539.513404 17541.535670 18603.239947 20087.944455 21769.367043 22855.120444 22032.280086 22071.031634 21785.282156 21999.236855 21462.898989 23234.177409 26578.882823 28752.866399 29719.080104 28936.277263 27589.347537 25991.058941 26039.418946 25787.126861 26936.999000 29595.303324 31248.327863 30772.525234 29615.662542 29682.076102 29757.472320 31678.378922 34117.087782 33442.251487 31099.851109 28757.731967 28540.759663 28657.661180 27175.275018 25333.094651 24711.336389 27052.123294 30028.851389 30930.838544 31633.312086 31578.766499 30486.658700 27957.274442 26472.802833 26132.869921 26228.590813 26906.108147 26476.468041 26400.668774 26175.766543 25863.132727 25962.693816 25411.110577 25034.095110 25376.576484 26256.707011 25979.102672 24709.595378 23637.587784 23859.873949 24344.164312 24489.422471 24361.228734 24052.205998 24071.078715 24064.869797 23939.364020 24285.513457 24990.037630 25490.203366 24788.267567 23198.465094 21921.519644 21778.320457 21642.201285 21540.780672 21652.006743 21714.238110 21637.695377 21970.119118 22470.786538 23244.565705 23257.765568 22795.628510 22029.064372 21593.239024 21494.396309 22561.123243 23353.707561 24244.868903 24059.707972 23982.798671 24251.321289 24676.115920 24532.632398 24637.464494 24582.230336 24640.531384 24397.794072 23924.590195 23548.145654 23316.828372 23647.703566 23973.370538 23717.561416 23634.225238 23803.730551 24161.749174 24183.078898 24443.655905 24483.038014 24012.064024 23563.153625 22854.966246 22118.717778 21640.776191 21335.773879 21499.160534 21972.793830 22483.216583 22765.065843 22748.451887 22299.036529 21806.481776 21626.156942 21508.329074 21317.562997 21403.643659 21501.616746 21677.066612 21846.108404 21852.307290 21617.502940 21771.338727 22118.457943 22263.361626 22111.982358 22021.790122 21612.847510 21543.920131 21812.666728 22291.931997 22474.214005 22289.049248 21793.826032 21578.558798 21490.527731 21697.762409 21833.474060 21628.794276 20626.714735 19508.731717 20906.556237 20026.736479 19097.492407 18517.481228 18283.474851 18020.333578 17573.020956 17508.542296 17499.656167 17069.240488 16353.681271 16074.145742 16769.384677 17380.532012 17315.810635 17936.548601 19229.756847 19451.723659 18560.397638 17868.071325 17303.512324 17193.395564 17857.242521 18082.975418 17678.544406 17095.267324 16497.510289 16082.889769 16355.438869 16786.633492 16996.865309 16817.370527 17365.625460 18758.059202 19713.282078 19955.461169 20027.698085 20876.756528 21157.808754 19914.292089 18510.247867 18714.295203 20593.330024 22649.599391 23538.103952 22869.970850 21123.574305 20040.588111 19526.250425 19077.847383 18664.621919 19234.767486 20682.321141 22123.312041 22630.370331 22725.041248 23296.595266 23917.328759 23814.363664 23741.417922 24872.456237 26544.129677 27784.969140 28228.435010 28071.208229 27524.530097 26939.276629 27138.875281 27840.649458 28455.738764 29354.372554 30254.056559 30295.471344 29865.661091 29759.928104 30286.509542 31649.227845 32955.852705 32437.477022 30623.765035 29493.155067 29267.328941 29038.653005 28645.945706 27469.622480 26566.489469 27400.827166 29611.896506 30915.166388 30728.429376 30228.372850 29850.447638 28523.651716 26804.531926 26474.654898 26865.338098 26980.079740 27060.432064 26831.485824 26639.183117 26791.483297 26777.840205 26467.943065 26090.868098 25992.334464 26563.903059 26711.529352 25576.875582 24451.244650 24417.452088 25117.331576 25511.474467 25131.525744 24686.287271 24645.705202 24598.113291 24642.769700 25199.474159 25910.845374 25897.067232 24958.508265 23697.572253 22912.168548 22739.098529 22458.134309 22244.818998 22366.205407 22364.066893 22129.486334 22399.445290 23071.086292 23813.684492 24036.196801 23761.542578 22951.981996 22338.537409 22569.909717 23248.448669 23746.338049 24121.983934 24395.389886 24759.736554 24918.554603 24859.524947 24888.270733 25017.026075 24858.987231 24514.433165 24227.579107 24065.029397 23954.450971 23850.189530 23823.859857 23737.036875 23660.368249 23883.692346 24223.899199 24400.972480 24293.384406 24124.501740 24083.706822 23820.253948 23173.989153 22565.290762 22109.857663 21699.715244 21410.256374 21402.507483 21786.776466 22220.137107 22292.073066 22191.477523 21984.171332 21566.949318 21293.898780 21369.547561 21481.489427 21549.679431 21505.662166 21442.530811 21539.345488 21601.268429 21647.625545 21859.076230 21969.621251 21956.816807 22017.309509 22007.763525 21786.633459 21707.139309 22021.276612 22252.259880 22112.755305 21914.928327 21731.920042 21471.615521 21199.928337 21089.302408 21110.803467 20808.967252 19942.393736 19058.913088 18565.703739 21728.122724 21398.558293 20671.435023 19813.925399 19169.573244 18706.419741 18262.847718 17974.482209 17933.567938 17974.756393 17859.318525 17539.696132 17219.583667 17171.243118 17162.505427 16968.977871 17115.320339 17534.583932 17710.326780 17794.829124 17731.817656 17408.969011 17151.304715 17072.883401 17039.146512 16963.361943 16825.549800 16602.405964 16607.662316 16914.772882 17317.963118 17718.872608 18102.606744 18723.006460 19582.134620 20276.201086 20635.150273 20794.960626 20857.122310 20652.052286 20186.489196 19783.541204 20020.903267 20860.443865 21700.697905 22073.484337 21794.002962 21014.301513 20373.509846 20026.093677 19907.027712 19969.640276 20302.926484 20970.269231 21682.615890 22219.784983 22702.756297 23291.418015 23908.345504 24252.014955 24691.760022 25483.796988 26445.340502 27187.034506 27574.351407 27681.500495 27550.984189 27489.032206 27710.345062 28226.190384 28702.094062 29233.313043 29780.237404 30017.551989 30000.995633 30003.565037 30363.510005 31022.876600 31595.943020 31387.318741 30569.174713 30062.814195 29771.138549 29456.372498 29143.084695 28705.790584 28345.333146 28500.217145 29242.015869 29812.690515 29791.496309 29552.680486 29267.267854 28756.706629 27939.021321 27389.115338 27174.507031 26970.286809 26895.322379 26840.662557 26874.051016 27015.268393 27053.253330 27018.948830 26905.333835 26786.766705 26830.939581 26800.713655 26336.042684 25803.411580 25582.355417 25679.893181 25671.496610 25393.251528 25168.605613 25103.231484 25098.787140 25179.765087 25428.781844 25656.625782 25532.157713 24974.629356 24342.908108 23945.137759 23679.163916 23367.411101 23088.882408 22979.114591 22860.213691 22698.468471 22740.677971 23099.740181 23577.340376 23917.340186 23902.663129 23602.838542 23384.883534 23523.586964 23866.861775 24223.086372 24495.851511 24754.497879 24966.331676 25045.984332 24981.648948 24940.196042 24906.498219 24779.336838 24531.153013 24315.137031 24157.752510 24018.275821 23907.318251 23777.383945 23643.552945 23604.113131 23698.869343 23881.436186 23993.964517 23937.744011 23772.464942 23631.571364 23359.394847 22881.666434 22436.902212 22083.710732 21769.793198 21533.741732 21496.122894 21689.827820 21844.314442 21819.273499 21753.659255 21667.405788 21490.997202 21350.862116 21345.037549 21390.849038 21416.297835 21404.168456 21381.282035 21397.290492 21410.010023 21419.138908 21466.366596 21488.217649 21510.299922 21599.285300 21674.687267 21709.916872 21792.769664 21997.191793 22157.204470 22124.664182 21985.452912 21778.514207 21488.936179 21191.551360 20909.874866 20667.212627 20278.734640 19603.711743 18889.910559 18416.916021 18232.158695 19508.731717 20358.555069 20857.272650 20271.593780 19341.107160 19110.928911 18754.067803 17693.336290 16387.047812 15553.225206 15254.151791 14499.411504 12499.711240 10554.777571 9670.108123 9020.280039 7276.624324 5436.461562 4677.391202 4350.512858 3576.018169 2444.342856 1792.713615 1372.415082 1076.251335 869.160977 726.898353 629.979467 562.822674 513.647546 474.185247 439.106600 405.345362 371.454323 337.061231 302.439140 268.185376 234.996296 203.522287 174.286247 147.649158 123.807867 102.812707 84.595265 68.999357 55.810635 44.782234 35.655298 28.174255 22.097310 17.202919 13.293143 10.194691 7.758386 5.857636 4.386338 3.256540 2.396068 1.746249 1.259817 0.899031 0.634018 0.441345 0.302793 0.204331 0.135254 0.087477 0.054957 0.033227 0.019019 0.009974 0.004412 0.001149 -0.000633 -0.001489 -0.001791 -0.001781 -0.001612 -0.001377 -0.001130 -0.000900 -0.000700 -0.000533 -0.000400 -0.000295 -0.000215 -0.000155 -0.000110 -0.000077 -0.000054 -0.000037 -0.000025 -0.000017 -0.000012 -0.000008 -0.000005 -0.000003 -0.000002 -0.000001 -0.000001 -0.000000 18565.703739 18896.865806 19422.028602 19799.798776 19497.592632 18861.791360 18428.103775 17910.874333 17050.919042 16155.491044 15316.703422 14542.079644 13461.498969 11862.526266 10421.710104 9276.592423 8168.572227 6893.961625 5560.726235 4524.965812 3733.083206 2989.970661 2304.759591 1764.969671 1362.158139 1070.962766 865.872404 724.753168 628.623731 562.026013 513.230592 474.007218 439.062922 405.362621 371.484441 337.075776 302.424222 268.137228 234.917607 203.419308 174.166669 147.520661 123.677241 102.685414 84.475312 68.889373 55.712068 44.695591 35.580392 28.110427 22.043609 17.158251 13.256371 10.164706 7.734154 5.838221 4.370912 3.244384 2.386568 1.738887 1.254161 0.894724 0.630769 0.438917 0.300997 0.203016 0.134302 0.086796 0.054477 0.032892 0.018790 0.009820 0.004310 0.001084 -0.000673 -0.001513 -0.001804 -0.001788 -0.001615 -0.001377 -0.001129 -0.000898 -0.000698 -0.000532 -0.000398 -0.000294 -0.000214 -0.000154 -0.000109 -0.000077 -0.000054 -0.000037 -0.000025 -0.000017 -0.000011 -0.000008 -0.000005 -0.000003 -0.000002 -0.000001 -0.000001 -0.000000 -0.000000 18232.158695 18354.959933 18606.149224 18889.792334 19041.391503 18899.944954 18540.001055 18086.149881 17508.493362 16771.103643 15936.409839 15036.109980 14059.445491 12936.439397 11660.105902 10366.174463 9112.694817 7878.150909 6655.598209 5492.002274 4476.798114 3618.948666 2887.685331 2263.932056 1754.935698 1362.399827 1073.443292 868.332656 726.636879 629.892685 562.792718 513.637460 474.181949 439.105593 405.345080 371.454248 337.061211 302.439134 268.185374 234.996296 203.522286 174.286247 147.649158 123.807867 102.812707 84.595265 68.999357 55.810635 44.782234 35.655298 28.174255 22.097310 17.202919 13.293143 10.194691 7.758386 5.857636 4.386338 3.256540 2.396068 1.746249 1.259817 0.899031 0.634018 0.441345 0.302793 0.204331 0.135254 0.087477 0.054957 0.033227 0.019019 0.009974 0.004412 0.001149 -0.000633 -0.001489 -0.001791 -0.001781 -0.001612 -0.001377 -0.001130 -0.000900 -0.000700 -0.000533 -0.000400 -0.000295 -0.000215 -0.000155 -0.000110 -0.000077 -0.000054 -0.000037 -0.000025 -0.000017 -0.000012 -0.000008 -0.000005 -0.000003 -0.000002 -0.000001 -0.000001 -0.000000 -0.000000 -0.000000 -0.000000 -0.000000 -0.000000 -0.000000 -0.000000 -0.000000 -0.000000 -0.000000 -0.000000 -0.000000 -0.000000 -0.000000 -0.000000 -0.000000 -0.000000 0.000000 0.000000 0.000000 0.000000 0.000000 0.000000 0.000000 0.000000 0.000000 0.000000 0.000000 0.000000 0.000000 -0.000000 -0.000000 -0.000000 -0.000000 0.000000 0.000000 0.000000 -0.000000 -0.000000 0.000000 0.000000 0.000000 -0.000000 -0.000000 0.000000 -0.000000 0.000000 0.000000 0.000000 0.000000 0.000000 0.000000 0.000000 0.000000 0.000000 0.000000 0.000000 0.000000 0.000000 0.000000 0.000000 0.000000 0.000000 0.000000 0.000000 0.000000 0.000000 0.000000 0.000000 0.000000 -0.000000 0.000000 0.000000 0.000000 0.000000 0.000000 0.000000 0.000000 0.000000 0.000000 0.000000 0.000000 0.000000 0.000000 -0.000000 0.000000 0.000000 0.000000 0.000000 0.000000 0.000000 0.000000 0.000000 0.000000 0.000000 0.000000 0.000000 0.000000 0.000000 0.000000 -0.000000 0.000000 0.000000 -0.000000 0.000000 0.000000 0.000000 0.000000 -0.000000 -0.000000 -0.000000 -0.000000 -0.000000 -0.000000 -0.000000 -0.000000 -0.000000 -0.000000 -0.000000 -0.000000 -0.000000 -0.000000 -0.000000 -0.000000 -0.000000 -0.000000 -0.000000 -0.000000 -0.000000 -0.000000 -0.000000 0.000000 -0.000000 -0.000000 -0.000000 -0.000000 0.000000 0.000000 0.000000 -0.000000 0.000000 0.000000 0.000000 0.000000 -0.000000 0.000000 0.000000 0.000000 0.000000 0.000000 0.000000 0.000000 0.000000 0.000000 0.000000 -0.000000 -0.000000 -0.000000 -0.000000 -0.000000 -0.000000 -0.000000 -0.000000 -0.000000 -0.000000 -0.000000 -0.000000 -0.000000 -0.000000 -0.000000 -0.000000 -0.000001 -0.000001 -0.000002 -0.000003 -0.000004 -0.000007 -0.000011 -0.000017 -0.000028 -0.000044 -0.000068 -0.000106 -0.000165 -0.000254 -0.000388 -0.000590 -0.000893 -0.001341 -0.002003 -0.002974 -0.004389 -0.006439 -0.009389 -0.013610 -0.019616 -0.028121 -0.040132 -0.057130 -0.081531 -0.118267 -0.177231 -0.220383 -0.000000 -0.000000 -0.000000 -0.000000 -0.000000 -0.000000 -0.000000 -0.000000 -0.000000 -0.000000 -0.000000 -0.000000 -0.000000 -0.000000 -0.000000 0.000000 0.000000 -0.000000 0.000000 0.000000 0.000000 0.000000 0.000000 0.000000 0.000000 0.000000 0.000000 0.000000 0.000000 0.000000 0.000000 -0.000000 0.000000 0.000000 -0.000000 0.000000 0.000000 0.000000 0.000000 -0.000000 0.000000 0.000000 0.000000 0.000000 -0.000000 0.000000 0.000000 0.000000 0.000000 0.000000 0.000000 0.000000 0.000000 0.000000 0.000000 0.000000 0.000000 0.000000 0.000000 0.000000 0.000000 0.000000 0.000000 0.000000 0.000000 0.000000 0.000000 0.000000 0.000000 0.000000 -0.000000 0.000000 -0.000000 0.000000 0.000000 -0.000000 0.000000 0.000000 0.000000 -0.000000 -0.000000 0.000000 0.000000 -0.000000 -0.000000 0.000000 0.000000 0.000000 -0.000000 0.000000 0.000000 0.000000 0.000000 -0.000000 0.000000 0.000000 0.000000 0.000000 -0.000000 -0.000000 0.000000 0.000000 0.000000 -0.000000 0.000000 0.000000 0.000000 0.000000 -0.000000 -0.000000 -0.000000 -0.000000 -0.000000 -0.000000 -0.000000 -0.000000 -0.000000 -0.000000 -0.000000 -0.000000 -0.000000 -0.000000 -0.000000 -0.000000 -0.000000 -0.000000 -0.000000 -0.000000 0.000000 -0.000000 -0.000000 -0.000000 -0.000000 0.000000 -0.000000 0.000000 0.000000 -0.000000 -0.000000 0.000000 0.000000 0.000000 -0.000000 -0.000000 0.000000 0.000000 0.000000 -0.000000 -0.000000 0.000000 0.000000 0.000000 0.000000 -0.000000 0.000000 -0.000000 -0.000000 -0.000000 -0.000000 -0.000000 -0.000000 -0.000000 -0.000000 -0.000000 -0.000000 -0.000000 -0.000000 -0.000000 -0.000000 -0.000000 -0.000001 -0.000001 -0.000002 -0.000003 -0.000004 -0.000007 -0.000011 -0.000017 -0.000027 -0.000043 -0.000068 -0.000105 -0.000163 -0.000252 -0.000385 -0.000586 -0.000886 -0.001332 -0.001990 -0.002955 -0.004361 -0.006398 -0.009331 -0.013526 -0.019491 -0.027917 -0.039747 -0.056248 -0.079084 -0.110144 -0.149658 -0.180289 -0.189611 -0.000000 -0.000000 -0.000000 -0.000000 -0.000000 -0.000000 -0.000000 -0.000000 -0.000000 -0.000000 -0.000000 -0.000000 -0.000000 -0.000000 -0.000000 -0.000000 0.000000 0.000000 0.000000 0.000000 0.000000 0.000000 0.000000 0.000000 0.000000 0.000000 0.000000 0.000000 0.000000 0.000000 0.000000 0.000000 0.000000 0.000000 0.000000 0.000000 0.000000 0.000000 0.000000 0.000000 0.000000 0.000000 0.000000 0.000000 0.000000 0.000000 0.000000 0.000000 0.000000 0.000000 0.000000 0.000000 0.000000 0.000000 0.000000 0.000000 0.000000 0.000000 0.000000 0.000000 0.000000 0.000000 0.000000 0.000000 0.000000 0.000000 0.000000 0.000000 0.000000 0.000000 -0.000000 0.000000 0.000000 0.000000 0.000000 0.000000 0.000000 0.000000 0.000000 0.000000 0.000000 -0.000000 0.000000 0.000000 -0.000000 0.000000 0.000000 0.000000 0.000000 0.000000 0.000000 0.000000 0.000000 0.000000 -0.000000 0.000000 0.000000 0.000000 0.000000 -0.000000 -0.000000 0.000000 0.000000 0.000000 0.000000 0.000000 0.000000 0.000000 -0.000000 -0.000000 -0.000000 -0.000000 -0.000000 -0.000000 -0.000000 -0.000000 -0.000000 -0.000000 -0.000000 -0.000000 -0.000000 -0.000000 -0.000000 -0.000000 -0.000000 -0.000000 -0.000000 -0.000000 0.000000 0.000000 0.000000 -0.000000 0.000000 0.000000 0.000000 0.000000 0.000000 0.000000 0.000000 -0.000000 -0.000000 -0.000000 0.000000 0.000000 -0.000000 -0.000000 -0.000000 0.000000 0.000000 -0.000000 0.000000 0.000000 0.000000 0.000000 -0.000000 0.000000 -0.000000 -0.000000 -0.000000 -0.000000 -0.000000 -0.000000 -0.000000 -0.000000 -0.000000 -0.000000 -0.000000 -0.000000 -0.000000 -0.000000 -0.000000 -0.000001 -0.000001 -0.000002 -0.000003 -0.000004 -0.000007 -0.000011 -0.000017 -0.000028 -0.000044 -0.000068 -0.000106 -0.000165 -0.000254 -0.000388 -0.000590 -0.000893 -0.001341 -0.002003 -0.002974 -0.004389 -0.006438 -0.009386 -0.013601 -0.019586 -0.028018 -0.039785 -0.055960 -0.077595 -0.104884 -0.134973 -0.160839 -0.172100 -0.173328 -0.220383 -0.331408 -0.562301 -0.832145 -1.162807 -1.581544 -2.116569 -2.800875 -3.673854 -4.782593 -6.183102 -7.941507 -10.135206 -12.853932 -16.200648 -20.292195 -25.259582 -31.247812 -38.415083 -46.931255 -56.975393 -68.732265 -82.387624 -98.122189 -116.104234 -136.480808 -159.367682 -184.838252 -212.911782 -243.541496 -276.603171 -311.884956 -349.079147 -387.776593 -427.464329 -467.527098 -507.253840 -545.851230 -582.467816 -616.233289 -646.316096 -671.996876 -692.745243 -708.278655 -718.589423 -723.967295 -725.114831 -723.408509 -720.779608 -719.296409 -730.647864 -724.798789 -734.717275 -957.736236 -1085.957959 -880.609828 -632.475177 -198.538788 -433.211714 -958.858376 -1920.269995 -2866.771804 -2437.518459 -90.505939 265.286967 -393.826369 -1644.447094 -3349.753773 -3482.314098 -1602.004783 -704.343567 -1119.243517 -1533.499463 -1899.972502 -544.592222 238.456012 402.634163 688.890580 818.061713 1154.960342 1729.562219 2695.005031 3290.528532 3792.247906 3837.922612 4159.131855 4673.568440 5397.989920 6578.897111 7688.480315 8493.763027 8629.109593 8460.704901 8638.430474 10502.482450 11954.820167 12514.926401 12588.386100 14174.048908 16782.105506 18652.201686 -0.189611 -0.240699 -0.367226 -0.572994 -0.832437 -1.159725 -1.576553 -2.109899 -2.792365 -3.663189 -4.769380 -6.166880 -7.921762 -10.111373 -12.825404 -16.166787 -20.252347 -25.213102 -31.194084 -38.353563 -46.861506 -56.897137 -68.645433 -82.292421 -98.019156 -115.994313 -136.365401 -159.248699 -184.718147 -212.793561 -243.428698 -276.499813 -311.795445 -349.008162 -387.728937 -427.444757 -467.540098 -507.303325 -545.940066 -582.597119 -616.401530 -646.518265 -672.224218 -692.986006 -708.519751 -718.816836 -724.159315 -725.223942 -723.379786 -720.891351 -720.642979 -728.938293 -745.151277 -741.305882 -760.981714 -800.136478 -649.748392 -390.015447 -445.411349 -908.107730 -1410.022512 -1733.378062 -1954.301976 -1974.513230 -1249.860977 -700.503461 -1084.077965 -1882.835520 -2507.184527 -2644.148477 -2044.594530 -1545.528608 -1350.215747 -1239.414627 -1131.917403 -700.355068 -120.308631 -113.803557 -121.221380 388.676963 1049.424999 1736.046992 2715.344836 3686.283158 4336.240101 4772.674822 5226.947266 5652.660623 6310.135040 7239.675902 8126.198088 8964.892425 9165.967500 9060.374371 9779.355280 11338.520806 13028.453301 14017.561213 14483.575885 15766.026989 17849.746306 19706.346321 20906.556237 -0.173328 -0.192523 -0.258442 -0.391609 -0.584124 -0.838459 -1.164693 -1.582104 -2.116735 -2.800925 -3.673868 -4.782598 -6.183103 -7.941507 -10.135206 -12.853932 -16.200648 -20.292195 -25.259582 -31.247812 -38.415083 -46.931255 -56.975393 -68.732265 -82.387624 -98.122189 -116.104234 -136.480808 -159.367682 -184.838252 -212.911782 -243.541496 -276.603171 -311.884956 -349.079147 -387.776593 -427.464329 -467.527098 -507.253841 -545.851235 -582.467834 -616.233345 -646.316241 -671.997212 -692.745746 -708.278806 -718.586670 -723.950391 -725.049117 -723.272657 -721.077151 -721.906652 -730.316472 -749.037079 -765.359738 -767.482476 -760.959690 -715.967857 -690.676407 -819.319492 -1072.907174 -1350.913121 -1546.506813 -1663.660021 -1650.298541 -1436.598982 -1349.243521 -1634.167312 -2005.124852 -2260.020559 -2314.014892 -2111.431875 -1796.463801 -1500.115465 -1214.623815 -934.157910 -614.808640 -264.529236 -4.025546 295.878991 796.959095 1440.118137 2187.286439 3024.699478 3879.730148 4586.654243 5191.027133 5780.819424 6385.085007 7075.265853 7807.139540 8543.394033 9228.168577 9756.266173 10283.393703 11108.221485 12216.327115 13435.359751 14514.805940 15552.637524 16903.333352 18581.065871 20207.599146 21298.465144 21728.122724 3691.202030 3244.517763 4787.169102 3081.495967 4389.676081 3420.817651 5687.585225 6265.888982 6841.853092 7134.936928 8093.737232 6905.997499 6192.453971 7956.749094 9472.223155 10805.643872 11458.773162 12176.903994 11596.458827 16728.218163 4058.159140 3107.952792 2813.149357 3208.293263 5926.180517 5060.431971 3349.717485 6521.968726 5213.955561 9326.766093 6887.348718 7856.913426 11303.568278 8413.659192 8823.971221 11556.667966 11590.105529 12888.713864 12428.445470 14916.593107 8617.233153 3547.846901 2614.383151 3336.944991 5127.477720 7063.289349 5888.554004 6409.967460 5275.163101 7402.397281 7907.187137 8908.572719 5341.629905 11274.857503 13044.313226 14712.717330 12211.508264 13619.965292 13582.462838 15254.475818 5364.601638 7540.235867 -33942.166505 6060.341684 11836.441556 4254.024370 6791.942331 7461.124229 7284.354585 12210.306695 12053.245667 14604.696819 7912.278432 9244.436560 14122.264320 13008.914145 11260.336000 14210.147112 13703.850798 15554.338772 14250.976544 4983.984272 -12075.897968 5047.192708 5146.704964 26965.600234 -24226.498828 -44772.731783 6107.613951 7468.061283 14655.269511 4275.322881 13787.007399 10754.667738 7596.185287 11629.144812 11391.172667 4232.581780 16186.449868 16480.140993 2173.961355 13354.324185 4129.705124 5608.602698 -36398.017442 8230.234390 4988.020919 2050.148609 8585.755781 13236.145349 19749.170654 22339.992116 11462.945443 5472.264233 12223.546849 15094.623561 13261.244489 14983.728731 15540.429343 12672.581438 2420.768384 9183.054467 9040.192599 3456.649190 14637.749622 -1714.706970 6324.699031 4327.739206 8178.146264 -12391.238292 13127.245080 4242.053504 1640.195959 15040.946768 13325.822515 8780.827591 14641.615912 13981.847613 16527.406280 15575.386603 -27960.382829 9756.091747 -8498.475624 3196.481798 12604.054011 -27001.288697 3684.818789 -3777.879601 3237.486804 -13383.794620 4098.397974 6444.379716 14781.585256 11242.003271 -16586.306084 14714.011196 21822.747440 10842.807288 23818.993732 27406.743297 2826.624101 9442.295923 5323.839172 6615.488745 -35845.922652 5729.228560 3969.601657 15174.324012 14801.307374 5658.203700 22968.159527 9710.851604 18710.646970 22321.573164 28239.329668 -23569.894199 5699.845360 13032.556911 19475.616924 15446.859569 7149.448018 673.952342 6544.015897 13951.432434 3498.683792 -23189.697052 -9370.588870 -42906.257016 2161.102115 2843.153656 -30081.459143 -25161.828423 15031.146678 5691.980852 10478.702517 29857.708355 -13877.270333 14627.586633 16277.569118 28053.532902 -11806.636341 -45267.854341 -39531.042342 6604.005800 13178.575281 5142.629201 8302.916557 7942.044001 -31187.841875 -13313.047243 11718.244080 4448.875420 26353.004138 7112.878512 10489.903533 20261.621499 -33507.759243 2282.332510 21026.923450 20274.953877 6104.737058 -9610.494345 -29296.472711 9910.869145 -30187.868711 9343.644399 5081.896047 2519.074336 12988.252604 7992.727066 1546.700775 -9840.903720 6183.327617 10225.694944 11605.787741 6831.130302 23962.550091 10797.816343 11823.489642 17467.979286 -43956.895335 9189.387360 4182.445928 7413.382760 4944.294797 -29364.081589 396.158690 5054.263100 -508.294871 10437.553212 8103.381675 8861.005333 -2416.486603 6152.753336 13867.788085 20181.436217 14733.293394 11167.082113 15077.895234 13704.663596 3456.164597 -7362.732090 5328.670930 -2383.139961 -14034.620687 13744.093446 3230.506943 13504.898260 2248.025550 4236.035823 1297.590378 6443.230537 -2940.018150 13418.341683 4863.454984 17067.196406 13513.096205 12536.866442 -39828.133941 22932.181860 3525.610749 9182.585536 8088.424575 9140.888387 7109.250235 4153.394440 9969.907867 11683.527658 1529.458688 6443.476865 14716.251927 7388.142426 13638.134950 14040.461623 11005.381676 16648.015439 11923.471873 13136.749040 10710.932004 10985.089825 5386.785277 8114.840880 1528.806707 -3914.657609 11385.916342 6464.743710 6542.249077 6253.095798 11844.549328 8359.427339 12596.745519 11666.453031 -2197.664810 11175.099456 9497.333504 13924.721557 14451.141442 6205.602598 12701.379700 13021.119288 6137.183922 11196.248426 9068.577809 10075.977791 7982.664090 -39087.270485 9078.857567 6106.649007 8421.955966 7396.313387 16345.897216 8384.147938 14194.499710 9764.471514 13886.217623 17345.001846 13816.423089 16710.325907 25725.911971 27642.603126 12075.722746 5108.193183 7572.516353 7048.507692 5758.097500 12891.222759 9149.234827 7830.851595 12945.097829 8467.393748 11912.496165 15197.005040 13639.765941 17511.826387 15554.157609 15562.501402 14840.257328 12191.644445 12341.746287 23548.713382 9409.589165 10682.199668 3000.572649 8554.222553 11155.285523 12510.473726 14512.779706 16050.883808 14190.157291 13303.756336 17693.483840 18527.841310 13594.477574 12547.744884 12377.600414 15342.501436 13068.700394 16286.074103 13832.850831 12125.553273 9676.515388 8710.622134 8825.313814 8722.926693 11837.650601 13318.779570 10843.280138 13813.918540 6349.606426 15304.047038 18862.158470 19366.367820 18949.004014 13818.593435 15466.887399 16360.192901 14203.070451 13773.835028 20609.576264 17144.662834 9952.241756 14073.309310 10809.154828 8613.712347 14359.915900 9614.981106 14293.627774 15846.424665 10541.698032 14622.940884 17551.595381 16050.991253 16850.726869 18103.773951 20075.845212 19230.570628 18063.487779 17751.513896 16624.685163 16047.114353 9642.855201 11973.881418 9095.039579 10346.377476 12432.910368 11687.111737 15228.102316 10910.817455 16046.727326 13387.449139 15480.804345 12059.709155 15520.170561 20194.310618 18103.579561 19546.441268 17130.279665 16573.430465 14393.166867 18601.985258 13436.793002 10429.580284 10501.870088 11729.655423 11006.564831 12916.196123 11593.838623 15882.356021 10642.205263 14484.924903 16239.433690 16965.601935 16982.544499 19219.231645 17500.130049 18116.798277 17741.604986 17413.099311 13306.444111 15771.706709 11901.855616 11029.208291 14074.663991 9894.490282 9822.434228 10045.483751 14054.920048 14629.430306 16685.926297 16105.177119 13236.809944 15156.214798 20680.458245 16614.007504 18775.992974 19927.965467 14900.878041 21091.688405 14516.549457 14601.746542 11980.041650 10529.565395 12717.521841 10106.164482 11285.380191 12893.727761 15457.936243 12858.620413 17228.928773 14618.658319 17300.263151 17493.739909 17671.074211 21602.742953 17964.100272 20949.009105 20553.879105 22213.769850 15648.658905 18958.359081 10257.202036 15969.407938 16153.119600 11996.946763 15711.201441 15005.187451 12806.236967 17367.230656 10478.126181 17078.227119 16757.351896 19266.367253 20567.559411 20682.771874 20878.171504 19318.020267 19823.727604 20715.800876 21710.856314 18307.716026 14832.749564 12315.903417 9515.114058 10629.404784 9226.240629 14218.741510 12795.066954 15259.797325 17448.836665 17457.325346 19511.861306 20024.803029 18003.212963 19551.233810 21741.625898 20127.324847 20458.608463 20637.285818 16269.683695 14572.233761 11642.320741 9314.793261 11788.255811 10312.920641 9815.163936 12060.846179 13776.170155 17310.484440 13554.596349 21408.130845 18580.327306 20523.855760 15296.374876 17854.868561 19108.722007 20056.629057 20483.332372 19667.235361 18948.759793 21222.345600 8980.444140 10693.963703 4971.383272 12651.867749 11774.836457 14471.788446 15552.839862 13870.159270 14106.482730 17488.154801 14301.349821 14132.312703 22522.560360 19908.429303 20494.482675 21720.261490 21173.451795 20676.001506 21066.780512 17989.375038 1133.825038 10775.070721 7833.360939 11018.908409 10724.175612 12065.507237 11558.769039 14002.256645 16819.657444 17119.520249 11946.525272 18851.142859 17188.352637 19448.108273 22071.537158 22361.774680 18558.993111 20574.117936 17190.561412 16986.558525 1175.208474 5695.771288 1139.734007 8219.141599 9046.195200 12522.723742 11776.303124 11764.072819 13383.690446 17238.720647 16447.555461 16007.342035 16884.805242 17924.383735 21251.415568 21187.347351 21568.592550 22315.746232 18023.017346 17391.115094 2542.209633 3111.763061 2214.604076 5768.308904 8041.861886 7413.590832 15363.104149 10633.898487 14361.831746 14137.283450 16286.220974 12797.739823 14895.986257 19084.157888 18896.381151 20850.611695 22179.527476 20016.870349 19554.084440 24942.159159 1650.686571 2355.681910 1463.484647 4037.502605 5076.696283 13563.636651 9247.611578 9640.141521 14533.792442 16868.106525 15439.077518 16921.538866 21649.224754 18251.376046 19998.416332 19493.203406 21802.523724 20397.820694 15921.961044 19456.713161 306.514720 5436.581768 3450.729136 3591.029139 5253.532856 12134.350321 9644.871007 14502.220078 14573.646485 14020.787557 15058.199320 17525.855097 15257.213641 17285.610367 20454.721610 19592.910825 20500.772317 21460.807633 18397.853594 17532.513372 1520.386575 852.322126 2062.425654 4558.731869 4983.570380 10773.167776 8068.870773 8671.639929 17561.346493 17403.508018 18487.106143 19273.378174 15113.552075 20873.842976 21715.210319 21716.714675 18170.846837 19298.468216 20793.959523 21000.916330 550.411769 2030.217283 1684.979563 6280.699517 5700.907516 8260.542841 9851.071042 9830.086759 10905.225238 14119.285334 16692.275573 16867.174889 19571.661917 18288.359718 18308.399893 21884.860989 18957.038617 19779.953142 19963.10