<VTKFile type="PolyData">
<PolyData>
<Piece NumberOfPoints="6715" NumberOfVerts="6715" NumberOfLines="0" NumberOfStrips="0" NumberOfPolys="0">
<PointData>
<DataArray type="Float64" Name="Pressure" format="ascii">
 8437.933234 7746.075692 6422.957952 4155.602298 803.929164 -4134.360883 -10688.778713 -18139.684612 -25689.654623 -32973.119457 -38549.615106 -43678.441911 -46607.781513 -48226.750993 -48815.347210 -47360.120311 -41600.064587 -24298.655430 9101.381202 28717.530213 17563.910058 -2729.678658 -12422.812696 -15456.846428 -15117.336687 -11770.043664 -6976.692863 -2728.497148 953.274473 3860.019329 5843.862180 6997.867215 7581.080351 8006.756163 8412.322636 8825.689051 9370.921238 9827.879935 10293.475840 10730.031950 11181.382497 11462.974773 11602.701240 11739.284088 11940.638721 12191.188626 12370.501195 12471.536289 12616.207786 12768.533971 12914.515752 13027.398507 13102.216759 13135.873483 13119.551313 13069.327328 13069.014806 13326.281898 13702.946234 13874.439374 13806.081266 13656.290257 13477.641095 13340.332584 13237.904753 13095.738111 12947.368310 12806.009246 12644.419042 12513.079698 12411.083723 12326.786794 12232.841239 12142.314259 12105.487341 12141.278388 12220.232526 12285.008887 12301.651857 12311.294416 12359.788133 12467.830039 12622.349170 12795.264841 12934.395610 13064.362027 13191.339142 13337.000256 13454.846657 13493.006747 13553.088568 13714.642392 13889.748811 14050.488172 14215.494856 14366.510419 14560.836907 14816.328151 15019.954332 15128.831325 15266.638763 15550.976668 15826.531746 16005.320102 16183.131393 16427.285784 16647.637150 16805.684619 16980.233579 17184.789013 17360.828482 17461.780858 17526.480293 17648.319536 17806.935134 17993.060694 18176.928733 18347.346189 18483.539763 18630.669003 18810.997948 18970.921166 19081.590098 19196.778710 19345.026269 19512.949202 19638.839719 19688.996771 19614.809546 19626.037970 19745.431847 19809.285290 19709.197704 19430.901697 19257.665803 19258.656243 19260.914061 19192.849323 19077.764240 18999.494091 18922.015380 18807.580196 18693.062654 18554.324176 18395.001021 18250.884556 18105.997192 17986.649845 17882.409672 17777.940130 17656.883455 17517.870594 17362.867816 17218.035705 17100.662851 17019.542799 16962.336320 16908.806448 16847.760618 16741.376005 16609.322664 16468.367627 16325.629044 16177.573504 16048.969453 15945.717979 15865.599964 15768.707570 15674.616965 15618.281221 15591.051948 15585.731545 15586.121519 15544.233643 15491.216691 15450.057060 15431.866556 15406.803007 15352.143757 15294.611168 15247.026556 15214.670478 15194.891396 15150.866250 15081.053299 14995.010576 14917.707318 14853.181264 14771.305828 14665.742435 14546.098083 14443.116104 14379.134294 14332.869547 14274.842452 14185.855578 14047.975318 13887.678732 13709.651986 13531.640730 13388.233803 8818.353129 8511.636446 7735.878044 6286.890773 3994.033212 593.638298 -4340.219280 -10857.573985 -18437.337859 -26238.162161 -33410.777026 -39212.843651 -44218.849098 -47429.699674 -49333.025292 -50083.788461 -49602.308088 -46958.431589 -38742.376945 -27062.380327 -16308.774506 -12644.281211 -16814.561552 -19470.519149 -19103.813509 -16368.929859 -12041.074966 -7146.151977 -2662.340903 993.173030 3813.341413 5759.625853 6959.348316 7649.269263 8140.606362 8569.498595 9000.591318 9468.552396 9936.790381 10413.253276 10844.681737 11213.075706 11479.003449 11667.474521 11849.673540 12063.458003 12286.663743 12453.327074 12592.322065 12741.508484 12892.397033 13030.869524 13132.595154 13200.721563 13250.279121 13267.700209 13259.147655 13296.967156 13460.849667 13696.076831 13848.461439 13853.088597 13759.375231 13625.002117 13490.852620 13363.547012 13230.011699 13085.521711 12941.082046 12796.408860 12666.815880 12564.038934 12464.684664 12354.165360 12266.269255 12236.878633 12269.338895 12337.384887 12395.697512 12424.722146 12446.698574 12501.236394 12603.193505 12740.406162 12894.178695 13036.841496 13170.727996 13298.323846 13426.993291 13529.635096 13603.793860 13712.587203 13869.380895 14046.285535 14230.351525 14396.938388 14552.125943 14741.412669 14967.388688 15162.885431 15308.380766 15472.510922 15707.526705 15950.586709 16165.072125 16375.752965 16591.903452 16776.169472 16939.165214 17121.535523 17307.904533 17463.242080 17568.727864 17664.434701 17784.920823 17936.048695 18101.790920 18258.910454 18417.165253 18566.793361 18713.516958 18881.529399 19032.152617 19143.369972 19268.372646 19404.031264 19543.768515 19671.750350 19718.862843 19714.229765 19732.612683 19786.862604 19794.080651 19683.712580 19499.373573 19368.113022 19326.209156 19308.807820 19269.689650 19191.814145 19109.286462 19027.470776 18928.878096 18815.014290 18684.168957 18534.972092 18385.746242 18241.478730 18101.830310 17978.926269 17866.624233 17745.920738 17614.171416 17470.035656 17330.983868 17216.353585 17125.854648 17052.073858 16987.555845 16921.549706 16827.369871 16702.092169 16561.856696 16422.345985 16288.569512 16168.544019 16070.966996 15986.419935 15895.390303 15801.678595 15732.497011 15699.141628 15681.652055 15657.778547 15618.405597 15577.724582 15549.895499 15527.428285 15492.907832 15442.440631 15385.370264 15338.578896 15308.380330 15284.239333 15240.026371 15168.921506 15084.873805 15001.166582 14918.536175 14821.265645 14703.762065 14585.557046 14494.814546 14430.435030 14368.909645 14290.501381 14185.191809 14045.117133 13876.253316 13696.755269 13517.738227 13372.920127 13290.251361 8975.414829 8865.145484 8482.689478 7636.264804 6189.793151 3874.346858 365.689553 -4626.891769 -11112.911448 -18647.520415 -26446.222554 -33677.665660 -39782.047648 -44526.160097 -47760.686617 -49688.906074 -50495.292396 -50164.710957 -48286.553335 -43803.121964 -36902.627103 -29718.790521 -25102.954131 -23609.053292 -22692.299473 -20563.164710 -16941.596609 -12256.293957 -7272.431772 -2731.295969 971.458489 3751.138264 5675.745121 6905.443624 7669.034019 8198.548664 8643.169992 9074.575565 9521.140921 9981.448779 10438.549514 10855.823017 11206.586185 11483.330984 11705.420063 11910.307391 12120.499678 12324.007286 12499.826886 12655.827825 12803.936208 12945.802403 13071.882068 13171.212915 13244.128043 13295.243667 13321.984286 13341.429906 13399.363174 13526.735719 13693.940672 13816.975335 13841.508509 13778.447519 13667.617844 13540.205533 13408.572460 13273.736285 13133.854714 12990.593821 12851.103523 12724.778955 12613.472609 12506.944643 12405.661620 12331.232881 12304.443856 12326.656656 12378.520615 12432.352059 12473.318555 12512.734275 12574.284998 12670.354004 12795.206285 12935.904390 13077.152199 13211.358733 13340.652884 13462.346280 13567.018896 13665.537519 13785.905148 13936.880349 14109.300767 14288.552223 14460.013817 14629.666796 14817.088510 15021.528020 15213.380325 15383.497193 15566.140249 15783.314775 16014.276086 16236.563690 16451.342806 16655.451447 16841.063435 17014.753814 17189.599485 17358.826443 17505.312999 17623.110708 17732.261453 17853.739886 17994.861892 18148.474872 18302.469977 18455.122511 18606.252887 18757.879449 18910.868933 19053.449404 19180.243290 19305.587181 19435.412510 19562.928929 19667.878696 19721.388194 19740.495592 19764.820116 19793.153456 19775.591959 19683.295887 19549.161348 19440.030348 19380.887050 19346.762638 19303.788693 19237.880170 19158.197774 19071.709749 18974.407064 18862.113335 18733.839663 18592.333015 18446.106541 18302.005783 18163.251793 18035.367132 17914.389150 17790.838463 17659.614250 17522.852334 17390.869231 17275.301285 17179.262389 17098.050882 17025.418881 16949.641721 16855.682804 16737.426880 16603.857809 16468.612142 16340.276135 16225.065523 16125.687627 16035.627230 15947.012863 15862.263552 15794.717524 15752.623228 15723.888882 15694.297612 15659.105644 15624.183198 15595.349524 15566.953196 15530.108705 15482.830650 15430.642923 15383.859829 15347.753062 15313.791596 15265.856798 15197.093100 15116.344587 15030.166397 14938.765646 14837.534257 14724.865179 14615.333688 14525.294788 14450.769642 14376.941012 14289.172648 14177.123771 14034.411645 13867.005733 13690.639273 13520.477924 13373.108629 13282.084956 13249.385542 13388.233803 13384.878559 13286.973611 13059.886326 12699.376795 12268.915851 11802.338215 11275.764128 10679.550262 10049.904391 9436.981592 8765.494860 8113.589249 7504.628294 6930.491536 6379.702567 5877.589583 5372.818642 4932.141071 4484.771222 4182.568231 3804.540079 3491.221841 3237.949304 3030.297174 2856.975526 2709.645304 2581.733350 2467.823049 2363.468430 2265.144320 2170.201182 2076.791296 1983.767617 1890.563539 1797.064607 1703.483292 1610.245744 1517.896133 1427.020959 1338.193029 1251.933123 1168.686459 1088.810853 1012.573632 940.154756 871.654030 807.100770 746.464623 689.666643 636.589933 587.089433 541.000585 498.146754 458.345363 421.412816 387.168279 355.436466 326.049561 298.848430 273.683260 250.413755 228.909006 209.047132 190.714773 173.806505 158.224221 143.876511 130.678079 118.549203 107.415248 97.206232 87.856454 79.304169 71.491314 64.363266 57.868640 51.959113 46.589270 41.716462 37.300684 33.304453 29.692701 26.432664 23.493779 20.847576 18.467581 16.329209 14.409664 12.687834 11.144192 9.760694 8.520678 7.408745 6.410621 5.512887 4.702330 3.964009 3.272308 2.602811 2.252661 13290.251361 13295.271594 13249.638117 13114.499506 12876.616195 12540.383847 12129.402942 11658.351546 11130.160231 10549.572838 9936.762512 9309.827441 8666.152363 8031.971327 7420.162223 6842.390113 6294.522527 5782.825113 5299.012291 4853.675301 4449.157535 4096.310596 3767.364177 3477.761896 3232.846024 3027.891688 2855.565229 2708.707372 2581.092176 2467.399028 2363.208636 2265.005491 2170.145757 2076.787024 1983.787966 1890.587930 1797.078223 1703.476504 1610.213282 1517.836169 1426.934202 1338.081917 1251.801155 1168.537664 1088.649393 1012.403527 939.979694 871.477258 806.925039 746.292181 689.499249 636.428898 586.935671 540.854671 498.008979 458.215793 421.291341 387.054663 355.330381 325.950625 298.756229 273.597371 250.333760 228.834502 208.977738 190.650135 173.746297 158.168142 143.824288 130.629463 118.503967 107.373182 97.167145 87.820167 79.270519 71.460145 64.334431 57.842001 51.934540 46.566637 41.695649 37.281577 33.286943 29.676683 26.418038 23.480448 20.835451 18.456577 16.319244 14.400660 12.679720 11.136901 9.754169 8.514873 7.403653 6.406344 5.509888 4.702263 3.972578 3.313032 2.728923 2.343362 2.183420 13249.385542 13253.411421 13238.639538 13168.729692 13024.400422 12788.010564 12461.274781 12057.431057 11588.581036 11062.843102 10489.452244 9882.524964 9255.772776 8620.436362 7991.792612 7383.419880 6803.808306 6256.774220 5743.789636 5265.255866 4824.977197 4426.738442 4071.223020 3752.556699 3472.249837 3231.858657 3028.460625 2856.429608 2709.480968 2581.682948 2467.807738 2363.463864 2265.142971 2170.200784 2076.791179 1983.767583 1890.563529 1797.064604 1703.483291 1610.245743 1517.896133 1427.020959 1338.193029 1251.933123 1168.686459 1088.810853 1012.573632 940.154756 871.654030 807.100770 746.464623 689.666643 636.589933 587.089433 541.000585 498.146754 458.345363 421.412816 387.168279 355.436466 326.049561 298.848430 273.683260 250.413755 228.909006 209.047132 190.714773 173.806505 158.224221 143.876511 130.678079 118.549203 107.415248 97.206232 87.856454 79.304169 71.491314 64.363266 57.868640 51.959113 46.589270 41.716462 37.300684 33.304453 29.692701 26.432664 23.493779 20.847576 18.467581 16.329210 14.409665 12.687835 11.144197 9.760712 8.520737 7.408938 6.411253 5.514961 4.709130 3.986214 3.346762 2.810052 2.410579 2.205489 2.145585 2.252661 2.045890 1.723323 1.472420 1.266305 1.090259 0.938200 0.806465 0.692329 0.593533 0.508125 0.434395 0.370840 0.316137 0.269121 0.228773 0.194198 0.164614 0.139339 0.117777 0.099409 0.083786 0.070518 0.059265 0.049737 0.041681 0.034879 0.029145 0.024319 0.020262 0.016858 0.014005 0.011618 0.009624 0.007960 0.006575 0.005422 0.004465 0.003672 0.003015 0.002472 0.002023 0.001654 0.001350 0.001100 0.000895 0.000727 0.000590 0.000478 0.000386 0.000312 0.000252 0.000203 0.000163 0.000131 0.000105 0.000084 0.000067 0.000053 0.000042 0.000034 0.000027 0.000021 0.000017 0.000013 0.000010 0.000008 0.000006 0.000005 0.000004 0.000003 0.000002 0.000002 0.000001 0.000001 0.000001 0.000001 0.000000 0.000000 0.000000 0.000000 0.000000 -0.000000 -0.000000 -0.000000 -0.000000 -0.000000 -0.000001 -0.000001 -0.000001 -0.000001 -0.000002 -0.000002 -0.000003 -0.000003 -0.000004 -0.000005 -0.000007 -0.000009 -0.000011 -0.000014 -0.000017 -0.000021 -0.000027 -0.000033 -0.000042 -0.000052 -0.000065 -0.000080 -0.000100 -0.000124 -0.000153 -0.000189 -0.000233 -0.000287 -0.000352 -0.000433 -0.000530 -0.000649 -0.000793 -0.000967 -0.001178 -0.001433 -0.001741 -0.002111 -0.002556 -0.003090 -0.003730 -0.004495 -0.005410 -0.006500 -0.007798 -0.009342 -0.011174 -0.013344 -0.015912 -0.018945 -0.022522 -0.026734 -0.031684 -0.037494 -0.044302 -0.052265 -0.061567 -0.072412 -0.085038 -0.099713 -0.116743 -0.136471 -0.159291 -0.185641 -0.216021 -0.250988 -0.291169 -0.337268 -0.390068 -0.450444 -0.519371 -0.597931 -0.687322 -0.788869 -0.904035 -1.034431 -1.181826 -1.348161 -1.535555 -1.746323 -1.982986 -2.248280 -2.545170 -2.876861 -3.246808 -3.658726 -4.116602 -4.624699 -5.187567 -5.810046 -6.497271 -7.254677 -8.087992 -9.003243 -10.006746 -11.105098 -12.305167 -13.614080 -15.039199 -16.588106 -18.268571 -20.088526 -22.056032 -24.179241 -26.466371 -28.925700 -31.565670 -34.395323 -37.425858 -40.675965 -44.189312 -48.111686 -52.689302 -55.436542 2.183420 2.117129 1.936282 1.689094 1.462061 1.262442 1.088416 0.937047 0.805595 0.691610 0.592917 0.507592 0.433932 0.370438 0.315787 0.268818 0.228510 0.193971 0.164419 0.139170 0.117632 0.099284 0.083679 0.070426 0.059187 0.049670 0.041624 0.034831 0.029104 0.024284 0.020233 0.016833 0.013984 0.011600 0.009609 0.007948 0.006564 0.005413 0.004458 0.003666 0.003010 0.002467 0.002020 0.001651 0.001347 0.001098 0.000893 0.000726 0.000589 0.000477 0.000386 0.000311 0.000251 0.000202 0.000162 0.000130 0.000104 0.000084 0.000067 0.000053 0.000042 0.000034 0.000027 0.000021 0.000017 0.000013 0.000010 0.000008 0.000006 0.000005 0.000004 0.000003 0.000002 0.000002 0.000001 0.000001 0.000001 0.000001 0.000000 0.000000 0.000000 0.000000 0.000000 -0.000000 -0.000000 -0.000000 -0.000000 -0.000000 -0.000001 -0.000001 -0.000001 -0.000001 -0.000002 -0.000002 -0.000003 -0.000003 -0.000004 -0.000005 -0.000007 -0.000009 -0.000011 -0.000014 -0.000017 -0.000021 -0.000027 -0.000033 -0.000042 -0.000052 -0.000065 -0.000080 -0.000100 -0.000123 -0.000153 -0.000188 -0.000232 -0.000286 -0.000352 -0.000432 -0.000529 -0.000648 -0.000792 -0.000966 -0.001176 -0.001431 -0.001738 -0.002108 -0.002552 -0.003085 -0.003724 -0.004489 -0.005402 -0.006491 -0.007787 -0.009329 -0.011158 -0.013326 -0.015891 -0.018921 -0.022494 -0.026700 -0.031645 -0.037449 -0.044249 -0.052205 -0.061496 -0.072331 -0.084945 -0.099606 -0.116620 -0.136331 -0.159130 -0.185458 -0.215812 -0.250751 -0.290900 -0.336963 -0.389723 -0.450055 -0.518933 -0.597438 -0.686768 -0.788249 -0.903341 -1.033657 -1.180964 -1.347201 -1.534490 -1.745143 -1.981682 -2.246840 -2.543584 -2.875118 -3.244895 -3.656632 -4.114313 -4.622203 -5.184849 -5.807094 -6.494071 -7.251215 -8.084255 -8.999218 -10.002419 -11.100457 -12.300201 -13.608777 -15.033550 -16.582101 -18.262203 -20.081788 -22.048915 -24.171731 -26.458424 -28.917179 -31.556125 -34.383273 -37.406433 -40.632943 -44.068026 -47.697538 -51.392062 -54.016487 -55.038719 2.145585 2.127243 2.044258 1.874050 1.665932 1.455139 1.261023 1.088648 0.937709 0.806316 0.692283 0.593519 0.508121 0.434394 0.370840 0.316137 0.269121 0.228773 0.194198 0.164614 0.139339 0.117777 0.099409 0.083786 0.070518 0.059265 0.049737 0.041681 0.034879 0.029145 0.024319 0.020262 0.016858 0.014005 0.011618 0.009624 0.007960 0.006575 0.005422 0.004465 0.003672 0.003015 0.002472 0.002023 0.001654 0.001350 0.001100 0.000895 0.000727 0.000590 0.000478 0.000386 0.000312 0.000252 0.000203 0.000163 0.000131 0.000105 0.000084 0.000067 0.000053 0.000042 0.000034 0.000027 0.000021 0.000017 0.000013 0.000010 0.000008 0.000006 0.000005 0.000004 0.000003 0.000002 0.000002 0.000001 0.000001 0.000001 0.000001 0.000000 0.000000 0.000000 0.000000 0.000000 -0.000000 -0.000000 -0.000000 -0.000000 -0.000000 -0.000001 -0.000001 -0.000001 -0.000001 -0.000002 -0.000002 -0.000003 -0.000003 -0.000004 -0.000005 -0.000007 -0.000009 -0.000011 -0.000014 -0.000017 -0.000021 -0.000027 -0.000033 -0.000042 -0.000052 -0.000065 -0.000080 -0.000100 -0.000124 -0.000153 -0.000189 -0.000233 -0.000287 -0.000352 -0.000433 -0.000530 -0.000649 -0.000793 -0.000967 -0.001178 -0.001433 -0.001741 -0.002111 -0.002556 -0.003090 -0.003730 -0.004495 -0.005410 -0.006500 -0.007798 -0.009342 -0.011174 -0.013344 -0.015912 -0.018945 -0.022522 -0.026734 -0.031684 -0.037494 -0.044302 -0.052265 -0.061567 -0.072412 -0.085038 -0.099713 -0.116743 -0.136471 -0.159291 -0.185641 -0.216021 -0.250988 -0.291169 -0.337268 -0.390068 -0.450444 -0.519371 -0.597931 -0.687322 -0.788869 -0.904035 -1.034431 -1.181826 -1.348161 -1.535555 -1.746323 -1.982986 -2.248280 -2.545170 -2.876861 -3.246808 -3.658726 -4.116602 -4.624699 -5.187567 -5.810046 -6.497271 -7.254677 -8.087992 -9.003243 -10.006746 -11.105098 -12.305167 -13.614080 -15.039199 -16.588105 -18.268569 -20.088521 -22.056015 -24.179187 -26.466193 -28.925119 -31.563777 -34.389153 -37.405755 -40.610435 -43.976290 -47.406653 -50.629648 -53.198358 -54.490975 -54.819505 -55.436542 -58.993301 -65.503803 -71.835320 -78.181744 -84.703163 -91.438129 -98.395632 -105.574748 -112.970666 -120.576462 -128.383600 -136.382054 -144.560323 -152.905420 -161.402857 -170.036650 -178.789328 -187.641965 -196.574233 -205.564475 -214.589814 -223.626296 -232.649079 -241.632674 -250.551257 -259.379043 -268.090737 -276.662033 -285.070154 -293.294343 -301.316257 -309.120124 -316.692563 -324.021991 -331.097593 -337.908026 -344.440156 -350.678294 -356.604412 -362.199590 -367.446548 -372.332555 -376.851889 -381.007895 -384.817286 -388.319812 -391.578902 -394.705556 -397.954005 -402.009159 -410.921802 -423.097613 -433.129512 -443.014566 -446.735322 -433.839871 -404.382108 -388.216789 -395.193715 -421.821416 -444.405763 -450.784783 -442.277232 -439.234242 -415.716302 -381.480427 -414.295132 -487.492097 -575.923377 -674.563071 -830.002935 -959.379821 -1072.423112 -1275.977804 -1489.890615 -1558.780791 -1471.286789 -1345.383438 -1273.239496 -1180.577998 -1020.290902 -849.594914 -564.841504 -343.260739 -221.099455 -75.840202 469.043740 1198.397547 1946.032036 2900.107398 3573.625659 4335.448423 5177.795289 5894.785188 6587.872190 7163.471880 7694.879256 8031.418629 8243.337005 8437.933234 -55.038719 -56.598477 -60.382013 -65.956010 -71.950435 -78.208777 -84.703981 -91.431163 -98.386455 -105.565097 -112.961116 -120.567234 -128.374806 -136.373776 -144.552633 -152.898387 -161.396552 -170.031141 -178.784681 -187.638245 -196.571501 -205.562788 -214.589222 -223.626840 -232.650789 -241.635567 -250.555333 -259.384281 -268.097091 -276.669434 -285.078509 -293.303540 -301.326176 -309.130650 -316.703611 -324.033522 -331.109631 -337.920658 -344.453508 -350.692488 -356.619499 -362.215501 -367.463067 -372.349345 -376.868517 -381.023694 -384.830709 -388.328625 -391.588539 -394.722816 -397.980235 -401.969305 -408.135498 -417.602347 -427.405233 -432.431686 -429.541299 -416.955230 -400.406132 -395.830127 -406.592258 -422.109036 -434.829820 -443.180846 -441.796823 -435.704394 -430.172152 -420.850852 -433.628450 -494.117248 -580.462978 -684.829362 -817.539608 -955.255769 -1096.204500 -1257.908279 -1396.272487 -1447.146138 -1407.369783 -1339.901429 -1267.728959 -1171.431541 -1024.452599 -810.547146 -565.754273 -374.250758 -220.132845 -26.886262 455.576069 1161.984466 1967.861561 2839.755150 3489.588205 4256.506216 5135.218031 5938.930239 6688.632605 7339.921785 7865.548777 8209.914520 8475.805090 8690.887115 8818.353129 -54.819505 -55.388562 -57.381274 -61.248420 -66.303637 -72.075831 -78.255782 -84.725874 -91.445099 -98.397772 -105.575405 -112.970867 -120.576524 -128.383619 -136.382060 -144.560325 -152.905420 -161.402857 -170.036650 -178.789328 -187.641965 -196.574233 -205.564475 -214.589814 -223.626296 -232.649079 -241.632674 -250.551257 -259.379043 -268.090737 -276.662033 -285.070154 -293.294343 -301.316257 -309.120124 -316.692563 -324.021991 -331.097593 -337.908026 -344.440156 -350.678294 -356.604411 -362.199588 -367.446542 -372.332530 -376.851779 -381.007405 -384.815287 -388.315369 -391.584689 -394.744857 -398.046160 -402.060831 -407.688429 -415.246986 -422.500572 -424.932284 -419.775534 -408.739634 -398.795059 -398.508127 -408.073162 -420.456860 -430.958061 -437.216807 -437.426172 -433.505738 -430.212677 -432.112185 -453.385499 -508.597261 -591.272028 -694.631859 -818.442026 -956.957696 -1104.361035 -1250.478928 -1363.824806 -1411.245943 -1391.957211 -1337.232265 -1260.895832 -1154.061170 -1003.352866 -808.055044 -596.590596 -402.297137 -210.027136 61.285638 529.460951 1183.297365 1950.566570 2758.268307 3484.779626 4273.197262 5118.747778 5936.936655 6693.299857 7348.335932 7871.507147 8257.016788 8550.759245 8778.590875 8919.835464 8975.414829 -19022.072722 1614.098751 -20607.218903 -1288.590571 3394.395597 -170.111819 3624.163099 2814.830600 -101.070951 1361.705550 3324.168034 880.702734 -35785.240092 5145.423083 4748.479840 3395.628935 5655.025464 8003.506978 6682.701706 7463.496276 -8410.422531 -455.261691 2679.112633 -25459.227361 -4918.827941 -36917.335567 -948.698963 -39546.772232 3849.115133 4366.335179 -14999.544185 4226.430713 3780.174049 2235.515348 -6712.401429 7100.425724 4831.698010 2938.094356 2035.578966 5042.088227 -27663.960709 2129.645978 -2558.198444 -2060.728125 -9993.013017 -6551.854488 -43623.298885 -14827.052417 -3080.369481 -26326.552251 -4529.938111 3774.229805 -42645.268438 6118.234904 -2715.870068 5567.700425 2012.034402 2998.315018 6423.098766 6668.988073 -12878.267033 -27269.660530 -5016.965712 -27083.718515 2492.929154 -15757.224090 -24682.140214 3139.109380 -1184.183124 5124.913672 7203.452481 61730.603272 -17124.486815 2114.051065 5057.180023 5574.645237 2520.969624 7507.762117 5660.286972 947.629970 -11801.324058 -43309.327436 4780.194679 -31369.652839 -40848.128572 -8640.099856 13654.559270 44131.024722 -13481.088772 2875.105956 2158.170733 -31107.393860 -44051.929070 4015.849095 -29550.139201 4576.426794 1035.993529 11228.375841 703.535679 -7670.531906 -42201.594015 -2892.541398 -44168.786027 -16993.433019 -31862.727177 -7681.610784 7384.516443 37967.803386 4343.361697 -27339.731370 -42295.614649 -18650.767711 6498.250539 -40756.098904 -39628.488976 -332.893100 2545.325316 3507.870586 -22875.865183 5169.322210 -43245.117539 122.933131 8005.037200 -1525.183786 -6896.712133 25576.480265 7760.581536 -25544.183912 65123.053429 -42234.472149 -14756.314519 -38302.482234 -13850.360864 -16347.235173 -43542.714107 -41719.074039 -34608.450968 -6049.374840 -171.606118 -14426.927236 -36144.880280 -44434.692216 45755.660083 8766.064178 8418.171549 -5863.400047 60111.886335 6368.299048 69.842017 -46578.351764 -10797.866306 -39264.700389 -12575.045425 -44191.663464 -13997.460631 -10319.451998 31348.073441 -12987.012818 -46680.765902 3404.072398 8465.667352 5705.509712 6613.920787 -42710.503947 -30536.706302 -45356.609438 9312.335678 -43189.326882 -32579.827417 -12144.363977 -44021.747828 -10973.435300 -41304.470033 -46515.058459 -18487.973843 -47578.985375 -13997.771510 -13332.201815 -2816.320137 -6126.450784 45384.927034 9280.210135 6993.025482 9582.717898 -12145.427497 -39721.006422 -41161.161601 -46561.188417 6966.605780 8329.546597 -37068.971260 -5166.194297 7284.701194 -3734.709397 8076.734188 -44693.428730 49290.143146 -41475.623893 9887.046612 -37685.898617 -7028.006116 -23661.009863 5130.918797 8509.483479 7515.580356 8192.013055 -6017.470002 8170.001261 8037.267085 -43907.197804 8919.681978 7809.277011 -2390.743008 11156.895374 9423.194552 -43607.093794 1889.015888 -3973.789372 -14097.424583 7322.378234 9170.253339 -37567.896481 -32971.598381 9988.548533 -43584.656077 7685.153108 8096.312100 -8185.031479 9555.380367 10288.254624 9289.604073 -32504.171069 8377.167767 8216.200881 9091.802790 1827.050773 -48622.039236 -14298.256222 5021.802964 43992.189015 -35261.866761 11011.610108 7319.983093 -25335.109485 -5599.579107 62435.086911 8434.253646 9952.483181 7087.219372 9019.403346 7731.114346 8849.352128 8695.352769 8588.838860 9928.300958 8029.336888 52828.665784 11092.715806 11630.437284 9453.288661 6537.729621 -6010.591493 9109.878742 7268.445439 -10274.081348 9289.373447 9354.685056 8473.000755 5971.244070 8261.802808 -10440.787652 8597.930910 9003.777956 10655.019396 6371.850212 -63.570962 10282.418105 10829.827534 3267.229763 -45110.624508 7753.416589 9895.804783 8271.319902 9729.642134 10500.215631 7421.156836 10969.165332 8476.871475 9389.229899 7689.289561 8921.927047 9013.281397 8266.167203 10163.120820 8016.482709 9938.588672 11553.485181 10141.606045 10448.961342 11226.539648 8067.325190 9685.112237 -2325.063930 -43162.467491 8802.401830 8436.149516 9939.159266 8710.208546 9023.870792 9097.925942 10399.460986 10753.193868 59629.700301 8246.440901 8789.023600 8814.921225 10584.177681 -454.107694 8317.391694 11399.077312 7917.049605 10181.367606 12172.524452 9313.721878 9183.095269 -10930.627103 8687.122921 8919.465023 10528.183619 9428.529805 11374.786890 10654.701294 11580.243487 10084.498448 9743.773282 11314.545316 -4776.700360 19443.544945 36422.874135 60320.764434 8520.790036 8755.173618 6383.932774 7438.918653 7328.507302 8460.525167 12155.689240 11336.242823 11330.938113 9703.802476 8399.171319 10943.144205 8729.905301 12422.243459 10441.574181 11267.058004 -9683.645177 12161.353768 10408.101167 3012.360814 10464.416220 11795.726210 7460.110064 11807.911927 11685.514388 11595.245750 11615.923975 13387.792692 10669.238843 7364.575615 7801.418081 13179.217738 10441.792209 11947.707196 9575.895676 7250.264735 11750.728175 10058.182612 10827.675224 9408.882578 10213.321902 8980.523616 11222.365435 11299.749301 10597.133910 8921.604266 10017.064600 7845.768878 7411.333770 10148.936957 13036.276086 10354.746862 10444.450712 11135.925312 11717.211555 10826.640776 9408.808312 7993.189634 66542.113627 -9278.541304 9252.996257 6833.013355 11748.720560 10129.588109 7581.201353 11429.087494 12450.346273 8115.412622 8588.766890 8878.762796 11520.744565 7724.530029 11035.583334 10018.775867 11274.052376 11152.538406 11831.831027 11785.754486 9880.002563 8341.592202 11632.036761 8598.564664 11168.582678 5752.534808 7118.947164 9226.475445 9493.471008 9350.350736 9938.453712 8435.200253 9884.054187 11364.084638 7773.793775 12112.546701 11051.300553 12017.998843 11504.279037 10734.346532 10066.906152 -10573.994691 8199.563645 6222.175368 7413.416933 6403.635233 8372.961078 7023.611111 7039.742984 9600.527596 6327.866030 7471.013856 12010.274856 7884.994449 9503.266138 12831.001662 10626.345816 11689.498295 12397.697711 11363.159815 -13929.370463 11809.096130 9248.228004 7556.047743 7856.295814 5467.440073 7654.073981 5979.996329 8493.770266 10604.242221 11090.689295 7173.345649 8842.974625 8066.085658 12498.603002 10182.508119 11250.217521 12622.531593 2561.632777 12332.656780 10412.444297 -8528.890878 8249.035984 11467.157801 7192.505958 7819.499007 10779.507310 6648.888620 10775.872439 8083.297975 9526.017719 10108.744091 10171.670631 9729.612266 11275.476612 12330.443731 13280.466050 12321.716176 11831.416193 12390.513710 3372.012484 11378.193406 7230.276371 9680.864061 10068.762380 9980.220399 8257.122719 10492.967683 8868.543855 11186.611569 8387.225288 11352.791741 11278.649634 9676.643619 12872.275956 11327.795323 10315.862520 9234.232192 11708.943253 9596.836048 10443.865373 10833.497827 11979.639536 10675.231675 7558.728597 10020.850484 6046.662050 9200.931460 9360.754430 6599.589400 9937.611620 12333.862933 10700.255836 8956.579413 10413.397646 11339.092642 10069.956811 11388.674031 12633.905259 11041.895383 5870.398289 -2265.120771 7269.385790 5788.036689 7565.902726 7258.607156 6199.054526 6235.120775 8874.794266 9085.945571 11001.562624 10331.542861 10702.983657 8978.454371 8272.965382 11029.145770 11995.302518 12462.800710 11905.497814 11843.589455 8126.936212 10838.590114 5299.540271 5429.943497 4297.181002 8398.415900 9697.066124 8201.201110 8200.341672 8509.398831 5743.159315 11333.328598 7669.769793 10990.301666 11891.773427 11898.269025 11471.707251 11477.465710 11893.871875 12921.309413 11689.197794 12417.566562 2476.808795 5296.833079 3124.163522 5722.443754 9061.335076 9392.394132 6464.046305 8291.245193 6735.310557 7435.011881 9310.129568 10557.331596 7259.287435 11501.825048 11850.255279 12681.222308 11030.415893 11643.948881 12567.725375 7740.952916 3122.732040 2968.201474 2905.731616 4732.733360 2975.701044 5877.938585 7469.341778 10521.548389 5781.681957 7604.872417 6710.999052 6775.269004 8888.834348 8255.136913 10739.761541 11727.552793 8933.217612 12583.126431 7435.124496 12820.051491 3227.942270 4285.436114 2923.980087 2426.176562 8086.869286 4187.775023 6250.283591 6191.011746 6017.420608 7285.441517 5153.195830 7600.011399 6690.592565 10792.080479 8615.835162 13141.229601 9937.321469 12920.198709 9805.408098 12258.020853 3228.999792 3106.588118 3044.140205 3134.059597 3412.615740 4474.434691 4923.042303 6717.614339 5692.539925 6360.060684 5047.690993 7033.078275 11733.642834 7216.820841 8292.244068 10609.106708 9600.997695 9441.716061 10932.850420 9347.463667 3139.154368 2729.683236 3801.483108 2502.499529 3352.156372 5369.786573 3679.954393 4605.140376 5826.124641 4668.131549 7327.259870 6951.774541 6525.543084 6410.969723 9569.242321 9050.787056 9113.515438 12579.320388 8733.020930 8550.513007 3784.920687 2474.467526 2847.363141 2931.200703 4166.932122 3952.119338 4927.368052 6506.509782 5662.870197 6561.306333 7318.886533 8320.660780 7996.447826 9791.037275 10061.437469 13239.808076 12377.213828 13681.550344 9129.564607 9456.98900