<VTKFile type="PolyData">
<PolyData>
<Piece NumberOfPoints="6715" NumberOfVerts="6715" NumberOfLines="0" NumberOfStrips="0" NumberOfPolys="0">
<PointData>
<DataArray type="Float64" Name="Pressure" format="ascii">
 2699.216582 3019.427974 3143.071173 3775.387527 4790.446815 5963.105997 6497.584199 6714.659496 5859.652873 3545.036549 2061.542252 1811.907446 4130.886296 14645.473435 29636.082814 10244.718502 -20280.853776 -18204.713865 13154.579525 24532.285663 22906.437953 21735.676233 17906.302317 13295.045494 9845.603948 8051.259536 8377.169335 8945.521688 10399.342816 11419.767458 10816.484253 10875.395339 10852.874816 10224.457977 9720.530138 9920.737158 10292.617861 10233.019559 10060.882999 9796.498616 10162.017007 10834.685312 11430.966005 11615.861731 11138.742226 10979.424839 11982.639576 13402.050599 13580.017500 12867.172973 13075.510760 13623.545092 13514.087316 13191.311129 13511.476345 14217.126727 14356.809387 14264.930208 13871.281477 13495.471052 13838.676729 14611.400733 15143.410430 15630.947904 15742.311180 16064.174651 16511.951074 16723.751641 16370.334012 16081.997355 16267.239859 16952.981418 17557.029024 17875.984924 18185.192856 18559.031501 18669.714822 18377.577588 17902.191583 17994.068525 18205.828474 18229.975379 18474.758411 18816.040718 18614.698717 18465.790330 18628.729021 18713.223148 18218.697247 18133.811545 18106.360723 18315.994337 18985.185665 19297.618660 19110.474140 19610.294482 20331.935900 20086.106556 19381.057666 19431.692160 19630.046481 19618.209931 19125.636878 19011.489518 18920.600172 19003.367211 19195.054732 19305.236047 19658.636480 19250.018446 19447.709091 19892.765698 19647.912207 19271.171531 18978.840345 19259.000049 19604.751185 19438.264996 19498.824602 19458.134822 19641.768414 19283.005765 18840.251819 18538.067258 18521.288598 18654.912687 19141.766435 18927.072722 18647.030367 18486.402738 18808.567418 19074.728972 19189.667428 18694.071284 18449.300333 18534.254267 18716.104474 18801.659799 18605.775606 18521.584700 18422.291663 18270.472849 18422.720907 18982.012226 19419.368108 19356.422224 18987.981235 18517.969822 18251.440041 18194.374316 18234.759253 18362.809148 18445.978785 18237.971633 18023.398683 17991.130358 17856.044057 17612.367955 17396.221353 17339.811125 17293.280492 17344.913536 17386.238529 17403.243102 17350.915578 17251.557451 17328.308086 17337.776211 17292.838414 17268.648740 17563.906288 17658.172973 17440.024133 16962.699311 16911.713694 17356.055893 17200.550370 16922.980281 16949.026279 17006.468598 16926.648575 16674.083489 16473.002028 16399.878441 16291.939369 16400.559288 16446.977918 16500.511658 16582.387399 16549.953119 16544.990782 16455.889922 16415.227403 16514.347580 16588.276463 16382.773722 15946.818990 15284.193704 14607.307845 13913.556587 13268.178577 2542.670928 2669.785541 2977.067100 3266.379891 3709.224429 4519.799327 5271.240381 5680.818527 5729.781736 5185.004053 3641.361080 1909.725013 870.518769 1193.977402 4937.500239 13862.994387 21905.571907 21779.298570 25181.320756 29151.420535 22400.917291 18683.927796 15741.137265 12375.395159 10186.393855 8987.828036 8328.129736 8300.542138 8529.452235 9299.376667 9761.598097 9594.798530 9676.501257 9799.693350 9602.174819 9354.617349 9537.234313 9896.561746 10044.918247 9893.641704 9880.855398 10112.563658 10479.967021 11026.381441 11471.195272 11687.184313 11711.590049 11893.476955 12428.443159 12603.090329 12378.510906 12753.717803 13511.938365 13735.408697 13590.017319 13710.913410 14028.817739 14071.205328 14026.459187 13909.567958 13873.347359 14213.114577 14678.716680 14988.473279 15290.966420 15763.896944 16059.693551 16152.964504 16376.707280 16560.714325 16452.721581 16517.801035 16919.913226 17345.688834 17588.158368 17847.646133 18058.759483 17960.905724 17903.563229 18003.352683 18113.318757 18237.085533 18346.254223 18469.291768 18539.619833 18435.071953 18223.561664 18268.249615 18445.196197 18308.984653 18371.190253 18651.433835 18735.867751 18749.221116 18872.578172 19025.865844 19470.814166 19959.344050 19797.893121 19315.473499 19205.891914 19129.755876 18965.053138 18971.304812 18951.762005 18776.817203 18624.291674 18686.735313 18947.038535 19195.365167 19313.530072 19538.823535 19626.641971 19448.276820 19168.272644 19045.706451 19161.807305 19427.038705 19406.051161 19131.875760 19072.174432 19021.343702 18812.297318 18613.625795 18397.826300 18375.666698 18472.651706 18531.602124 18438.013040 18463.504497 18742.755604 18916.766070 18907.543724 18965.031830 18867.228526 18616.628552 18551.163352 18662.445851 18654.834900 18600.021883 18558.618993 18348.873886 18210.666705 18450.958243 18851.287610 19074.149902 19021.014075 18831.355527 18625.020783 18437.092369 18295.680120 18231.973562 18220.839967 18175.165053 18070.557372 17957.242535 17831.700679 17692.312954 17548.954334 17402.217054 17286.951125 17221.766033 17187.378570 17206.003793 17247.853894 17205.794337 17139.328626 17170.225936 17253.020864 17266.802322 17203.808230 17225.541424 17243.467407 17113.671694 16942.215123 16909.203134 16985.687805 17032.848064 17026.449219 17016.714233 16959.841022 16707.126052 16422.718165 16314.008920 16268.227505 16193.321107 16169.230794 16213.375420 16276.198582 16304.955806 16240.408619 16191.798330 16166.738271 16125.328916 16071.428769 16069.004065 15845.115404 15373.546953 14767.901358 14117.965478 13488.901913 12960.943168 12626.977259 2560.182248 2583.646589 2691.193923 2928.246489 3257.426334 3695.794006 4259.001342 4812.977811 5213.945525 5304.224323 4908.960351 3890.657787 2392.764788 1014.081556 632.253883 2480.557323 7427.651218 13836.507367 18746.245042 20598.901130 18308.707235 14512.585901 11665.828118 10050.205775 8831.618128 8188.261204 7987.418097 8134.819718 8454.719061 8963.617398 9547.214520 9898.578435 9986.575076 10031.940047 10053.422282 9911.002214 9771.810228 9693.868924 9663.762525 9660.246486 9667.888290 9819.954753 10085.801454 10413.531833 10801.142695 11178.350936 11519.842178 11762.257411 11954.514652 12197.907166 12341.808701 12484.901091 12773.167317 13132.809806 13312.788478 13373.727225 13509.824335 13672.894556 13786.539743 13837.842656 13897.686256 14034.224768 14285.214930 14596.431160 14891.138256 15190.691393 15523.087594 15783.969991 15976.810726 16196.235329 16401.361494 16537.334386 16713.181742 16994.906339 17287.397873 17535.138372 17759.626207 17919.166339 17954.339324 17963.976701 18049.135459 18103.272741 18143.521349 18233.087185 18301.369127 18317.435485 18303.892802 18268.739641 18284.500746 18311.469598 18313.114766 18369.933563 18502.192720 18588.587745 18698.431943 18872.118699 19063.729247 19286.978462 19450.496848 19450.804659 19381.694120 19306.728050 19197.901190 19071.835120 19014.335823 18901.696769 18782.358840 18743.427955 18779.691379 18876.810973 19010.034294 19207.584613 19305.037710 19285.495209 19222.728493 19150.322004 19111.173029 19081.899714 19098.457244 19105.864424 18979.062350 18878.512256 18782.321179 18646.648516 18526.747825 18423.986153 18376.144986 18377.069956 18363.274912 18379.528052 18435.824598 18549.097988 18599.201797 18623.286317 18656.891747 18643.726414 18578.746678 18540.522166 18553.371811 18555.953247 18554.690917 18566.340910 18531.728287 18493.594601 18584.705986 18727.151114 18789.115663 18742.114995 18616.123198 18483.701013 18352.848773 18244.115045 18178.160700 18132.677270 18077.325762 17999.468612 17894.172966 17762.549616 17626.291960 17497.858506 17388.661008 17303.981617 17258.443498 17239.111006 17234.969765 17214.035246 17156.986159 17092.424083 17060.596206 17078.439268 17076.141330 17055.845108 17060.800174 17064.929650 17017.552417 16981.435718 16957.066181 16916.635407 16889.247152 16860.116195 16802.882770 16690.450209 16514.604372 16340.810950 16221.084976 16132.987958 16069.311352 16028.499438 16028.822893 16050.816789 16048.457262 16021.029043 15974.205399 15926.731345 15870.699228 15785.472574 15652.861027 15431.018591 15047.067886 14537.967750 13975.083707 13400.511014 12869.911336 12512.113252 12369.251350 13268.178577 13898.494583 14401.765025 14473.342563 14136.221002 13509.080888 12834.438922 12162.245641 11525.266576 10951.653832 10186.142076 9144.565163 8190.853599 7555.321785 6857.030825 6091.244675 5382.627552 4726.898075 4109.811182 3496.908197 3165.335322 2783.883899 2485.727753 2265.690915 2095.159273 1964.052982 1860.786599 1775.832297 1701.843560 1633.461642 1567.016467 1500.199708 1431.760872 1361.243252 1288.759046 1214.799855 1140.080452 1065.414757 991.622446 919.463391 849.596070 782.555539 718.746488 658.447246 601.821078 548.931759 499.761046 454.226271 412.196831 373.508832 337.977473 305.407084 275.598899 248.356791 223.491246 200.821906 180.178980 161.403818 144.348883 128.877342 114.862418 102.186638 90.741059 80.424529 71.143004 62.808963 55.340895 48.662868 42.704170 37.399008 32.686241 28.509156 24.815264 21.556099 18.687040 16.167122 13.958855 12.028037 10.343564 8.877245 7.603611 6.499722 5.544988 4.720979 4.011251 3.401172 2.877764 2.429541 2.046365 1.719309 1.440530 1.203144 1.001126 0.829196 0.682731 0.557657 0.450310 0.357168 0.273790 0.196310 0.156908 12626.977259 12874.415068 13249.507567 13568.439207 13566.499917 13296.951465 12877.458666 12345.015418 11760.064504 11110.586981 10408.320327 9663.685605 8843.152381 8019.336221 7277.906367 6566.587162 5852.315641 5160.695797 4532.361150 3968.052202 3479.484517 3088.696589 2755.020119 2480.422622 2261.836190 2092.909300 1962.670195 1859.935594 1775.343448 1701.604700 1633.389449 1567.047408 1500.285508 1431.865610 1361.341283 1288.833333 1214.840450 1140.083033 1065.379228 991.551669 919.362097 849.469974 782.410654 718.588630 658.281706 601.652425 548.763760 499.596660 454.067698 412.045602 373.365910 337.843362 305.281932 275.482594 248.249038 223.391635 200.729962 180.094203 161.325708 144.276961 128.811156 114.801549 102.130704 90.689711 80.377445 71.099893 62.769555 55.304937 48.630124 42.674420 37.372040 32.661854 28.487159 24.795473 21.538340 18.671147 16.152937 13.946228 12.016826 10.333637 8.868478 7.595889 6.492938 5.539043 4.715782 4.006720 3.397232 2.874347 2.426584 2.043815 1.717116 1.438649 1.201539 0.999762 0.828049 0.681791 0.556956 0.450012 0.357882 0.278105 0.209901 0.165837 0.147633 12369.251350 12474.828128 12696.122368 12953.029211 13131.324658 13140.753270 12963.570163 12620.343545 12143.980579 11572.218741 10928.841775 10231.412974 9495.005571 8726.814422 7951.549353 7196.005297 6468.044547 5768.168918 5106.645435 4497.384829 3953.618415 3481.624941 3084.921083 2752.982729 2479.764427 2262.592847 2094.156394 1963.747088 1860.692544 1775.803368 1701.834817 1633.459079 1567.015758 1500.199528 1431.760831 1361.243245 1288.759045 1214.799855 1140.080452 1065.414757 991.622446 919.463390 849.596070 782.555539 718.746488 658.447246 601.821078 548.931759 499.761046 454.226271 412.196831 373.508832 337.977473 305.407084 275.598899 248.356791 223.491246 200.821906 180.178980 161.403818 144.348883 128.877342 114.862418 102.186638 90.741059 80.424529 71.143004 62.808963 55.340895 48.662868 42.704170 37.399008 32.686241 28.509156 24.815264 21.556099 18.687040 16.167122 13.958855 12.028037 10.343564 8.877245 7.603611 6.499722 5.544988 4.720979 4.011251 3.401172 2.877764 2.429541 2.046365 1.719309 1.440530 1.203146 1.001132 0.829216 0.682798 0.557879 0.451042 0.359572 0.281917 0.218814 0.172865 0.149472 0.142607 0.156908 0.137042 0.107434 0.086008 0.069544 0.056339 0.045611 0.036866 0.029738 0.023936 0.019224 0.015404 0.012316 0.009824 0.007818 0.006207 0.004917 0.003885 0.003063 0.002409 0.001890 0.001479 0.001155 0.000899 0.000699 0.000541 0.000418 0.000322 0.000248 0.000190 0.000145 0.000111 0.000084 0.000064 0.000048 0.000037 0.000027 0.000021 0.000015 0.000011 0.000009 0.000006 0.000005 0.000003 0.000003 0.000002 0.000001 0.000001 0.000001 0.000001 0.000000 0.000000 0.000000 0.000000 0.000000 0.000000 0.000000 0.000000 0.000000 0.000000 0.000000 0.000000 0.000000 0.000000 0.000000 0.000000 0.000000 0.000000 0.000000 0.000000 0.000000 0.000000 0.000000 0.000000 0.000000 0.000000 0.000000 0.000000 0.000000 0.000000 0.000000 0.000000 -0.000000 0.000000 0.000000 0.000000 0.000000 0.000000 -0.000000 0.000000 0.000000 -0.000000 -0.000000 -0.000000 -0.000000 -0.000000 -0.000000 -0.000000 -0.000000 -0.000000 -0.000000 -0.000000 -0.000000 -0.000000 -0.000000 -0.000000 -0.000000 -0.000000 -0.000000 -0.000000 -0.000000 -0.000000 -0.000000 -0.000001 -0.000001 -0.000001 -0.000001 -0.000002 -0.000002 -0.000003 -0.000004 -0.000005 -0.000007 -0.000009 -0.000012 -0.000016 -0.000021 -0.000027 -0.000036 -0.000047 -0.000061 -0.000079 -0.000103 -0.000133 -0.000171 -0.000221 -0.000284 -0.000364 -0.000466 -0.000596 -0.000759 -0.000965 -0.001225 -0.001551 -0.001959 -0.002470 -0.003106 -0.003899 -0.004883 -0.006103 -0.007610 -0.009469 -0.011757 -0.014565 -0.018004 -0.022208 -0.027333 -0.033568 -0.041134 -0.050297 -0.061366 -0.074707 -0.090750 -0.109997 -0.133036 -0.160547 -0.193323 -0.232281 -0.278479 -0.333133 -0.397640 -0.473597 -0.562826 -0.667398 -0.789661 -0.932270 -1.098214 -1.290853 -1.513945 -1.771688 -2.068747 -2.410297 -2.802052 -3.250304 -3.761957 -4.344555 -5.006315 -5.756152 -6.603699 -7.559327 -8.634158 -9.840074 -11.189754 -12.696771 -14.375951 -16.244596 -18.326623 -20.666221 -23.387135 -26.707637 -28.762322 0.147633 0.141985 0.125736 0.103965 0.084950 0.069148 0.056153 0.045499 0.036786 0.029675 0.023886 0.019183 0.015371 0.012289 0.009802 0.007800 0.006193 0.004905 0.003876 0.003055 0.002403 0.001885 0.001475 0.001152 0.000897 0.000697 0.000540 0.000417 0.000322 0.000247 0.000190 0.000145 0.000111 0.000084 0.000064 0.000048 0.000036 0.000027 0.000021 0.000015 0.000011 0.000009 0.000006 0.000005 0.000003 0.000003 0.000002 0.000001 0.000001 0.000001 0.000001 0.000000 0.000000 0.000000 0.000000 0.000000 0.000000 0.000000 0.000000 0.000000 0.000000 0.000000 0.000000 0.000000 0.000000 0.000000 0.000000 0.000000 0.000000 0.000000 0.000000 0.000000 0.000000 0.000000 0.000000 0.000000 0.000000 0.000000 0.000000 -0.000000 -0.000000 0.000000 0.000000 -0.000000 -0.000000 0.000000 0.000000 0.000000 -0.000000 0.000000 0.000000 0.000000 -0.000000 -0.000000 -0.000000 -0.000000 -0.000000 -0.000000 -0.000000 -0.000000 -0.000000 -0.000000 -0.000000 -0.000000 -0.000000 -0.000000 -0.000000 -0.000000 -0.000000 -0.000000 -0.000000 -0.000000 -0.000000 -0.000000 -0.000001 -0.000001 -0.000001 -0.000001 -0.000002 -0.000002 -0.000003 -0.000004 -0.000005 -0.000007 -0.000009 -0.000012 -0.000016 -0.000021 -0.000027 -0.000036 -0.000047 -0.000061 -0.000079 -0.000102 -0.000132 -0.000171 -0.000220 -0.000283 -0.000363 -0.000465 -0.000594 -0.000757 -0.000963 -0.001222 -0.001547 -0.001954 -0.002464 -0.003099 -0.003890 -0.004873 -0.006090 -0.007594 -0.009450 -0.011733 -0.014536 -0.017970 -0.022166 -0.027283 -0.033507 -0.041062 -0.050210 -0.061262 -0.074584 -0.090605 -0.109825 -0.132833 -0.160308 -0.193043 -0.231953 -0.278095 -0.332686 -0.397120 -0.472994 -0.562128 -0.666593 -0.788736 -0.931208 -1.097000 -1.289467 -1.512369 -1.769899 -2.066722 -2.408011 -2.799479 -3.247417 -3.758725 -4.340949 -5.002302 -5.751699 -6.598771 -7.553888 -8.628162 -9.833455 -11.182371 -12.688239 -14.365088 -16.227589 -18.290845 -20.569115 -23.062635 -25.682410 -27.570213 -28.287164 0.142607 0.141270 0.134265 0.119456 0.101662 0.084279 0.069019 0.056180 0.045563 0.036851 0.029733 0.023935 0.019223 0.015404 0.012316 0.009824 0.007818 0.006207 0.004917 0.003885 0.003063 0.002409 0.001890 0.001479 0.001155 0.000899 0.000699 0.000541 0.000418 0.000322 0.000248 0.000190 0.000145 0.000111 0.000084 0.000064 0.000048 0.000037 0.000027 0.000021 0.000015 0.000011 0.000009 0.000006 0.000005 0.000003 0.000003 0.000002 0.000001 0.000001 0.000001 0.000001 0.000000 0.000000 0.000000 0.000000 0.000000 0.000000 0.000000 0.000000 0.000000 0.000000 0.000000 0.000000 0.000000 0.000000 0.000000 0.000000 0.000000 0.000000 0.000000 0.000000 0.000000 0.000000 0.000000 0.000000 0.000000 0.000000 0.000000 0.000000 0.000000 -0.000000 0.000000 0.000000 -0.000000 0.000000 0.000000 0.000000 0.000000 0.000000 0.000000 -0.000000 -0.000000 -0.000000 -0.000000 -0.000000 -0.000000 -0.000000 -0.000000 -0.000000 -0.000000 -0.000000 -0.000000 -0.000000 -0.000000 -0.000000 -0.000000 -0.000000 -0.000000 -0.000000 -0.000000 -0.000000 -0.000000 -0.000000 -0.000000 -0.000001 -0.000001 -0.000001 -0.000001 -0.000002 -0.000002 -0.000003 -0.000004 -0.000005 -0.000007 -0.000009 -0.000012 -0.000016 -0.000021 -0.000027 -0.000036 -0.000047 -0.000061 -0.000079 -0.000103 -0.000133 -0.000171 -0.000221 -0.000284 -0.000364 -0.000466 -0.000596 -0.000759 -0.000965 -0.001225 -0.001551 -0.001959 -0.002470 -0.003106 -0.003899 -0.004883 -0.006103 -0.007610 -0.009469 -0.011757 -0.014565 -0.018004 -0.022208 -0.027333 -0.033568 -0.041134 -0.050297 -0.061366 -0.074707 -0.090750 -0.109997 -0.133036 -0.160547 -0.193323 -0.232281 -0.278479 -0.333133 -0.397640 -0.473597 -0.562826 -0.667398 -0.789661 -0.932270 -1.098214 -1.290853 -1.513945 -1.771688 -2.068747 -2.410297 -2.802052 -3.250304 -3.761957 -4.344555 -5.006314 -5.756150 -6.603695 -7.559315 -8.634116 -9.839937 -11.189306 -12.695309 -14.371182 -16.229030 -18.275805 -20.500725 -22.839194 -25.089476 -26.906046 -27.808817 -28.025748 -28.762322 -31.787140 -37.430046 -43.056135 -48.828999 -54.899032 -61.314810 -68.100047 -75.269599 -82.834220 -90.801785 -99.177464 -107.963585 -117.159419 -126.760958 -136.760704 -147.147486 -157.906311 -169.018242 -180.460316 -192.205497 -204.222658 -216.476603 -228.928118 -241.534069 -254.247546 -267.018072 -279.791899 -292.512411 -305.120633 -317.555860 -329.756324 -341.659827 -353.204155 -364.327078 -374.965732 -385.055338 -394.527498 -403.308714 -411.320065 -418.478539 -424.698834 -429.891835 -433.955483 -436.760405 -438.150672 -438.001988 -436.379766 -433.765855 -431.319524 -434.641195 -439.529911 -448.590320 -480.451194 -463.940133 -440.980536 -515.343415 -647.856715 -699.976881 -709.217898 -778.528441 -871.208279 -931.657932 -1014.827957 -1098.948118 -1226.619395 -1123.628403 -1174.592016 -2161.696230 -2610.146604 -2357.691619 -869.169992 -423.863787 -463.185660 -298.732733 -683.552836 -1332.802392 -2905.031516 -3511.431194 -3278.011352 -3378.132366 -1808.466421 -1754.440205 -2641.605020 -2977.796211 -2186.526901 -916.226899 -337.018420 -604.574661 -1081.582075 -1044.030986 -924.975798 -757.625247 -315.698660 527.700204 1282.820150 1610.692679 1918.404261 2313.937400 2623.707174 2699.216582 -28.287164 -29.646270 -32.922440 -37.799905 -43.145018 -48.844313 -54.891942 -61.300560 -68.083261 -75.251747 -82.815827 -90.783095 -99.158643 -107.944782 -117.140788 -126.742660 -136.742907 -147.130366 -157.890047 -169.003018 -180.446319 -192.192914 -204.211677 -216.467407 -228.920888 -241.528979 -254.244760 -267.017742 -279.794159 -292.517370 -305.128373 -317.566430 -329.769743 -341.676093 -353.223264 -364.349052 -374.990653 -385.083374 -394.558895 -403.343742 -411.358927 -418.521327 -424.745670 -429.943308 -434.013109 -436.826336 -438.225367 -438.079572 -436.445825 -433.825710 -431.401539 -432.313511 -440.129218 -452.390222 -470.121698 -491.487359 -519.701087 -590.777843 -681.765827 -710.447407 -731.285026 -799.318809 -873.019253 -937.168970 -1017.640187 -1122.399322 -1247.204754 -1303.545805 -1281.814590 -1631.714405 -1962.073604 -1850.668710 -1375.795424 -734.117188 -320.532635 -447.768780 -760.619720 -1123.778953 -1772.980846 -2586.530210 -2856.806389 -2637.218669 -2570.127881 -2517.564865 -2645.971652 -2647.333614 -2239.757930 -1655.739285 -1037.676564 -1089.202434 -1230.218602 -1108.670980 -954.936970 -770.419376 -437.926503 91.845215 656.848370 1105.410419 1446.352400 1760.896611 2169.583196 2443.719310 2542.670928 -28.025748 -28.529576 -30.268895 -33.640658 -38.092029 -43.254686 -48.890044 -54.917729 -61.320540 -68.101803 -75.270137 -82.834385 -90.801836 -99.177480 -107.963589 -117.159420 -126.760958 -136.760704 -147.147486 -157.906311 -169.018242 -180.460316 -192.205497 -204.222658 -216.476603 -228.928118 -241.534069 -254.247546 -267.018072 -279.791899 -292.512411 -305.120633 -317.555860 -329.756324 -341.659827 -353.204155 -364.327078 -374.965732 -385.055338 -394.527499 -403.308719 -411.320084 -418.478604 -424.699023 -429.892341 -433.956693 -436.763125 -438.156492 -438.014234 -436.409771 -433.879425 -431.689648 -432.099477 -438.223592 -451.953993 -473.265725 -501.919744 -540.599279 -595.858096 -654.513346 -697.917033 -743.765653 -805.130282 -871.523446 -945.053384 -1032.770176 -1137.708110 -1253.738037 -1358.758865 -1438.508813 -1527.712022 -1530.581311 -1286.639595 -979.158975 -685.566410 -536.046526 -591.610890 -794.117055 -1111.166332 -1518.742862 -1933.722517 -2177.788221 -2256.836537 -2346.494637 -2363.937770 -2338.854491 -2229.839111 -2004.810714 -1695.770697 -1408.655177 -1282.811763 -1186.069516 -1050.097274 -892.847178 -682.377344 -395.546206 -17.529881 416.467371 856.282899 1281.722809 1687.447096 2057.804009 2345.683139 2508.276772 2560.182248 4018.525447 1016.614042 4856.039737 1443.536877 71.530929 -1631.829140 307.632861 54.578725 1075.614701 -511.670875 -1045.026853 343.037772 3430.352945 337.087602 1829.162336 736.576441 869.791622 2340.859282 4046.155131 3194.044222 1331.771371 -2266.567085 928.279296 7693.299922 1161.859192 3672.834082 564.401464 3538.266934 680.288642 1925.391895 3425.163193 840.856613 1186.290592 971.160157 2353.713408 2897.212359 2477.287049 2208.968400 3651.110937 4058.755335 3511.423567 -21.400845 1605.355794 1087.934940 2924.822897 2962.406513 16735.573917 2155.798045 3199.586713 2434.065107 2159.934626 460.787918 3861.615283 1514.418117 3135.608758 3677.049883 3787.357882 2900.169492 3646.342283 2872.436507 11476.660974 3887.528716 -23100.816354 2395.924656 3695.207641 11431.657864 2494.970621 265.593394 1346.533534 2899.737610 3311.720713 16941.986426 2306.003640 1848.588550 3733.078073 3466.957188 5298.814282 4083.602595 4007.106339 4792.508497 2994.783603 1096.066659 -29073.305414 3514.889630 3184.060861 3754.253783 -36494.309602 -20529.698472 4352.504794 -420.949599 4125.982249 2846.855712 1683.076537 131.008385 4021.521735 3340.287933 2077.095030 23826.119107 4318.545901 6474.162679 1759.613525 4979.897624 16021.867986 3021.734135 17724.133511 1606.282023 7113.895781 21556.695551 1320.283024 5379.487978 15699.765180 4005.271538 2088.303460 3487.726217 1290.377473 4647.675809 2505.072088 3364.874748 5906.435900 1211.972839 1976.878874 2463.856038 4922.125778 8602.787935 5785.429328 -23876.732841 8633.849830 3921.718462 -27761.344639 -23070.205991 10520.390009 2767.250929 5950.981493 7115.657966 23242.807720 -30624.827761 3060.276963 4115.171707 4064.367305 6969.900270 -27834.115906 1454.385760 -35593.603491 6637.453498 5026.399026 7394.084932 -23310.672727 11487.581051 12198.724811 29813.866991 3160.648205 4452.468368 4173.807169 11091.396895 17439.947789 4791.211819 21236.139959 3711.704478 11293.806798 3935.944755 7386.754021 8501.676375 6649.253287 1343.655562 -37621.924399 8128.823499 10664.196653 -9883.081983 3784.319362 12467.385063 25474.169810 2043.770840 3071.793454 9547.198512 3232.323610 32938.496646 11457.306197 3952.220255 4464.572551 5974.156653 -670.945162 9669.342531 3550.885348 11942.454055 3440.627057 -35712.316307 -29854.206684 32921.566963 6370.301752 8205.433604 -38108.278810 -30403.106019 10310.132433 -35729.409608 4112.786355 395.326542 -24628.863178 4867.656870 7778.043546 3821.492039 -13772.818771 -196.116682 3960.937489 4243.099278 4157.953241 4750.789474 10608.056166 6851.541444 -32872.975042 28802.204753 7863.336669 7808.184321 4651.561390 8080.242673 6774.373847 -20338.096483 4870.600049 11496.171562 22570.510208 10897.529098 5011.530081 -37655.707384 -37629.561396 6554.807074 5333.221869 3830.457273 7301.600059 9968.760645 6237.454402 8790.396816 11690.178293 -37954.744491 5456.915107 4913.276523 7288.695281 10554.121610 21455.793954 19320.667766 11967.126410 2304.912607 -24046.087088 7550.138880 6083.777459 3032.292676 -3672.751671 -32341.219983 8829.875716 7169.565614 9014.836551 5183.236384 5413.776976 4389.962715 6475.993737 6586.190889 11126.642048 8084.895665 -30175.508375 8519.290824 9823.983697 11900.167506 6914.308212 10981.381030 5220.768559 8170.146956 9035.206526 8306.149276 10680.953540 5704.942698 7035.082190 8091.941708 16151.681015 7694.178237 8793.763165 8482.610751 7578.886030 10890.313749 9178.157525 9280.677343 -21495.757158 3965.490957 6380.846578 6301.863604 4662.372106 7933.585405 7420.706876 2905.011781 7190.610036 5951.471780 11736.891672 4893.114618 6831.395007 6324.063381 4517.798768 7384.306665 3586.661930 8078.543190 9516.231848 8504.346281 6800.537872 9430.287936 4106.141818 7892.705297 11051.812063 -36460.801755 9325.119622 5272.097279 5796.731745 4344.022468 7182.634543 6292.675464 6454.199933 8220.685779 -32329.015375 4558.688070 6557.785754 6149.618399 8703.533396 12570.064085 7255.093573 10222.043674 4151.816519 7442.226914 10787.092117 6264.956674 4774.946779 -28355.164740 5650.484825 5155.299254 6879.874219 5305.651705 10446.973915 6956.851757 9627.988478 7700.589959 5902.934578 10047.300134 9204.384013 15328.208400 -21331.287645 -33461.806841 7646.886681 7494.501855 3480.088402 3987.724285 3526.470774 5794.238932 10205.235285 9052.458458 8975.655536 6382.576790 4896.873646 10438.583593 7798.998351 11542.624304 8804.794838 9877.037757 8280.019966 10197.704360 7575.972229 -20802.574539 10022.378164 10101.741208 7365.264002 9695.243957 11047.929446 11263.003874 9110.534588 13118.679658 8327.540891 6705.166008 7229.865301 11710.863659 8783.194407 12806.298236 8490.390488 11689.231637 9467.890564 9604.761024 8374.853874 7612.993286 8773.340054 5926.113456 7391.423619 9246.936489 8096.879937 6655.927740 8896.383585 6410.629904 4890.247134 9920.242354 13683.592226 11841.885248 9511.004613 8370.473254 11996.138792 9936.503431 10017.001372 7427.299664 -25993.261841 20832.561296 6849.297774 6816.362319 8174.910495 8296.442453 5963.047087 8113.289738 11671.856428 8146.995455 6826.221585 7460.546150 12833.720278 7589.761859 11303.547540 7203.557677 11403.679630 9750.764755 10294.965821 11163.168646 11287.834712 7569.220665 10442.807478 7310.906234 9993.025324 4790.289662 5358.918259 6950.905975 8650.610021 7521.353103 10044.937887 7085.685097 9864.739470 10313.251178 7617.001686 12836.331828 9654.509922 10602.592538 10940.897722 9363.315889 11885.010166 19489.949534 10183.070376 5536.559658 5168.603088 5492.496037 6235.175584 6022.545725 5437.721949 9898.685605 4786.988725 6453.093169 11809.882068 8148.366495 10018.123997 13454.929879 12155.824322 10979.415221 13417.549377 10632.633107 9339.339331 10063.373131 10580.078096 7019.143546 7556.055857 4759.431867 6797.924090 4034.068542 8927.839984 11160.503159 11478.821234 7176.552708 7994.041135 8016.701887 14412.219227 10075.718370 12068.702791 11503.924106 12631.756231 13985.485836 8240.938842 8307.981643 7580.811251 11952.488408 6519.073765 6918.286110 10994.517464 6550.179763 11963.727758 7505.410416 9764.699929 10373.354352 11237.560372 9682.179249 13294.073878 13925.437510 13900.215626 12806.157925 10620.806802 10841.073288 12104.202743 8623.918804 6284.510213 12469.279719 11487.147750 10205.646798 10882.986572 10958.381596 8431.629516 12275.880724 7753.874654 12584.584884 12917.851896 13092.870156 13671.013659 13208.701989 10925.082421 9264.981909 13904.516913 7889.136221 9835.338735 8516.389637 14233.878050 12463.672480 5945.876141 8523.150164 5058.039613 11666.302511 10231.135453 9339.577775 13157.963345 14288.160042 13257.429648 12922.985925 11969.052193 13823.048552 8595.888368 9268.820703 14936.536136 11431.835824 12238.850386 10499.012465 7221.739735 5032.126757 8907.817593 6044.904664 5455.343488 5415.494692 10475.306846 12498.241059 13203.720852 14378.210645 11801.537644 10746.433232 10337.645234 13759.108919 13555.418827 13180.585040 11581.663394 12672.053122 10966.002977 9473.429491 4779.264130 5803.577343 3887.905560 10069.112155 10759.440357 10599.413349 7855.447910 9009.855751 6982.821912 14823.309710 10038.415148 11062.729861 13904.317144 14314.517525 13569.495429 13720.399773 13961.437312 14239.432703 14000.610725 10534.587766 1389.193825 5737.609543 4071.976960 5644.632301 7842.228306 9437.662314 6197.607938 8672.021024 7960.408911 10840.411166 9518.727173 12673.393431 8302.682474 10839.660780 12012.658436 14222.291957 12716.882563 11583.328362 11726.018493 11218.165772 1955.533584 2719.853649 2640.973907 4741.658759 3271.325258 6889.389208 7853.529215 9423.695253 8264.635750 10227.356779 9070.911613 7794.953734 12789.334490 11795.455769 15005.441399 14666.050379 11469.852772 12304.206620 11771.820256 13098.562890 2261.878289 3774.621124 2056.077996 2009.122366 7197.345183 3921.409256 8503.470262 5204.905844 7596.841244 7286.332104 7331.115806 6933.886186 9445.874229 15712.196396 12251.372488 13525.359685 11680.903888 12805.958619 7963.513968 13517.954677 2228.311459 2197.355889 2612.016779 1709.739073 2818.879019 6504.214792 4919.374258 5874.337343 7533.134386 9308.726775 7054.131983 9959.615317 16587.679954 10266.642939 12317.588886 15454.589313 14239.057392 11141.387284 8774.727888 10714.702467 2134.523835 2330.878123 2856.490573 1554.651106 3280.682624 6158.966554 4989.468401 7518.799953 8210.555853 5877.082463 8147.126356 9557.684006 6635.816126 8808.296181 13399.915139 12794.675514 12029.046298 13728.675429 10547.995745 10644.410367 2285.795371 1436.310569 3116.148402 1788.423691 3392.659296 4564.147463 4970.868359 5304.094420 9467.903716 8458.464684 10609.970377 11726.167961 8054.826925 14466.982627 15120.276111 15176.657388 13459.752711 13852.599854 12895.864524 11499.892613 3369.299307 -1320.376662 2122.618035 3659.834283 4271.880035 3494.373671 3821.472338 4044.755714 4849.765162 5225.150899 8999.003073 9858.981837 12571.830316 9685.425476 10621.927877 14990.990344 13863.392709 14765.492067 12685.061439 10461.993679 3028.135444 2734.969907 1252.129600 446.528224 3253.655732 3890.860268 4240.007729 5280.326