<VTKFile type="PolyData">
<PolyData>
<Piece NumberOfPoints="6715" NumberOfVerts="6715" NumberOfLines="0" NumberOfStrips="0" NumberOfPolys="0">
<PointData>
<DataArray type="Float64" Name="Pressure" format="ascii">
 7276.483869 6092.998221 5192.895500 5011.840778 4972.916153 4673.021531 4335.077116 4068.453895 3513.281277 2222.167050 813.261229 352.655228 2859.404501 7253.496799 6075.235923 -6385.602937 -19172.149448 -24731.391537 -33744.039155 -36669.936203 -24942.311422 -7744.770701 -1224.266822 -5596.540693 -8848.244087 -7389.080831 -3820.445972 166.026440 3468.042840 5212.480903 6007.191007 6828.632541 7295.828830 7120.559761 7295.161235 7631.235205 8008.250093 8413.583470 8856.067917 8806.412622 8698.947310 9014.237032 9505.674038 9600.532028 9451.759953 9336.690380 9238.898177 9234.059969 10015.390203 11195.973199 12152.831954 12718.630720 13769.074002 14340.736436 13786.057611 13102.992447 13003.510296 13310.093398 13651.287595 14037.141140 14575.141838 14962.191114 15073.944507 15100.264676 14884.578354 14315.000238 14179.024413 14743.468090 15550.222491 16308.580140 16373.073830 15936.127861 15561.141683 15764.170482 16352.625874 16669.760544 16483.716226 16038.387235 15679.321163 15521.868277 15629.907180 15892.500514 16344.617370 16925.385163 17281.178345 17459.693431 17242.385075 16580.549135 16113.566234 16405.771835 16831.501678 17049.505318 17431.135322 17944.538848 18098.681290 17685.100338 17198.404244 17047.692400 17087.317699 17231.819971 17156.057874 16934.442351 17060.714466 17350.415725 17137.466639 16640.563037 16450.817963 16517.593062 16515.604803 16550.016197 16493.510528 16622.740937 17093.652663 17420.670356 17095.833463 16494.927147 16535.773975 17018.041932 17001.267419 16816.810543 16630.569621 16627.487675 16662.688934 16878.135211 17232.219146 17435.656425 17274.289435 17442.541083 17811.253961 17993.582016 17864.441604 17545.439458 17648.067696 18090.008228 18408.883721 18538.426971 18485.931293 18249.609900 17807.361889 17261.471264 16915.446638 17106.834454 17853.099153 18539.056780 18244.793196 17591.463262 17219.855441 17331.939627 17479.808377 17347.141716 17065.013365 16755.980542 16566.644334 16491.957327 16421.361333 16277.762949 16115.770884 16005.776116 15953.863736 15871.481974 15822.115608 15658.751678 15372.392805 15292.581877 15319.248727 15191.066809 14946.049747 14728.272223 14703.391606 14855.521513 14865.979764 14777.178841 14751.839373 14735.415935 14734.053398 14682.241102 14542.427529 14346.356866 14188.961407 14034.686841 13740.289958 13332.608257 12911.231384 12712.179753 12725.491427 12719.325861 12629.861833 12401.080902 12119.212850 11879.542849 11740.337140 11626.523851 11472.870312 11359.040468 11393.060144 11341.269441 11017.969645 10534.189329 10027.366394 9619.976942 9355.212814 9311.736127 8499.419755 7541.158331 6812.056815 6371.616704 5989.322571 5581.509931 5167.625119 4722.038757 4034.150636 2723.125910 859.060907 -830.648310 -949.014209 653.685371 1888.067339 142.097484 -5877.810946 -13321.207133 -19501.369202 -21212.644979 -15495.351722 -12428.235624 -13843.917643 -14479.204931 -12533.883535 -8421.546429 -3721.901986 396.333849 3362.732879 5090.335249 6181.821011 6949.652486 7154.084066 7022.144372 7182.564905 7665.244392 8238.313420 8768.289063 9101.114722 9058.750048 8961.310240 9201.349449 9599.720445 9767.602813 9782.257486 9846.703585 9934.465534 10133.421241 10740.361505 11576.948882 12251.717684 12794.073583 13479.077862 13848.811239 13650.012984 13481.044211 13653.189809 13872.797939 14013.748738 14197.117981 14517.903340 14831.417221 15017.022466 15111.087318 15099.260081 14967.246988 14918.855890 15125.514655 15503.292858 15905.345928 16019.102414 15850.956086 15783.374253 16061.327899 16463.555776 16634.577519 16504.325815 16198.608324 15961.613298 15948.846205 16034.465028 16177.718632 16485.608433 16886.015305 17136.725682 17161.817160 16860.210849 16360.043694 16193.171133 16538.044251 16902.424858 17076.971410 17325.152321 17671.439494 17781.582303 17540.611312 17236.701760 17093.489693 17106.129870 17172.616393 17152.854900 17038.374326 17065.727337 17236.514051 17142.994876 16840.639549 16672.688276 16628.565387 16586.577122 16543.933040 16502.554631 16613.934719 16952.793387 17279.004293 17243.439839 16925.314808 16843.225839 17092.802846 17203.482753 17070.614631 16918.298813 16918.402058 16980.197322 17098.954366 17377.879860 17649.490841 17628.265253 17598.877179 17742.802793 17780.562200 17644.622595 17551.126919 17705.563989 18058.536489 18376.005181 18510.498846 18441.410014 18229.478181 17882.082794 17455.007896 17151.432711 17264.138107 17767.025804 18161.780235 17963.690045 17473.600138 17183.454089 17185.048189 17220.360737 17109.919679 16883.240986 16650.547451 16460.164752 16323.547000 16209.822307 16064.503987 15918.623568 15832.935136 15766.099138 15646.053466 15510.947355 15361.394588 15212.092383 15157.605341 15127.011930 14997.737940 14816.208597 14668.742679 14603.423926 14631.700091 14677.328966 14618.147991 14481.141275 14397.530947 14394.406795 14340.594026 14198.609607 14017.151432 13824.553212 13616.973077 13350.197677 13006.750407 12673.765808 12487.158859 12453.662534 12430.223342 12322.962175 12117.281592 11889.794493 11674.809450 11482.015628 11312.831871 11170.251444 11073.103482 11054.247728 10978.673403 10716.620141 10313.069378 9896.065350 9549.856206 9320.449010 9209.230774 10039.828444 9743.892290 9069.982125 8243.204025 7549.905034 6991.977080 6471.242188 5987.296269 5520.637982 4968.104819 4155.859022 2816.309132 901.174739 -1182.182137 -2644.255748 -2952.565397 -2377.768195 -2524.333691 -5808.196426 -12004.499117 -18042.426961 -20687.461278 -20667.550025 -20858.168724 -20673.352213 -18444.054273 -14236.588529 -8928.191097 -3748.510571 403.697627 3235.814766 4910.545806 5955.637527 6619.088068 6855.267145 6900.463263 7136.080616 7616.795773 8199.602895 8742.698361 9085.953781 9187.492633 9244.496830 9442.713336 9707.974750 9891.136152 10010.020352 10168.844675 10366.345325 10638.413954 11102.660293 11674.975906 12201.176854 12705.727042 13224.004181 13564.006950 13681.837553 13787.837953 13960.910476 14116.562494 14222.980599 14349.995070 14568.898474 14816.265478 15005.491434 15132.066030 15216.509113 15244.551078 15245.225689 15307.603801 15473.187593 15685.208212 15809.826624 15836.315975 15918.489745 16139.099435 16368.924356 16463.092338 16382.136825 16211.938669 16103.653721 16116.551388 16163.894034 16271.580157 16498.546832 16775.852306 16975.135832 16995.610503 16785.015712 16498.334169 16458.826667 16711.120667 16973.755448 17136.983844 17311.424175 17506.692009 17576.416262 17479.267786 17334.150700 17244.145675 17221.205756 17220.686789 17184.279998 17096.873936 17061.673294 17101.124825 17043.249959 16887.690462 16766.908808 16695.405923 16640.477136 16596.024367 16580.714228 16668.483096 16880.281690 17109.284401 17179.649631 17055.384659 16974.400825 17089.497264 17198.777325 17162.817544 17097.351706 17111.053868 17166.810400 17258.987246 17450.638045 17667.896617 17734.814185 17721.142809 17788.271661 17835.368175 17822.219383 17847.131668 17985.115548 18210.068407 18418.611324 18498.057470 18413.943810 18221.643104 17939.137518 17604.946400 17358.157601 17390.072136 17657.965057 17840.346614 17699.342269 17385.763929 17166.284197 17096.141133 17056.475139 16954.508322 16784.698002 16594.342687 16417.416928 16266.847103 16129.185429 15988.515868 15860.356399 15772.383454 15687.857282 15559.384661 15412.163149 15286.806123 15197.904263 15141.052995 15065.335717 14943.841582 14809.949789 14692.859482 14608.828668 14569.423449 14560.653490 14505.758257 14395.446367 14307.766724 14258.945246 14176.666986 14029.621091 13851.268325 13658.271193 13448.607624 13211.696952 12932.267065 12662.683270 12484.904559 12402.278705 12329.374410 12187.602423 11981.618494 11770.244819 11571.572862 11369.403395 11174.742732 11013.440171 10901.329647 10833.491610 10732.630849 10509.142390 10175.047041 9822.701695 9530.978878 9320.003824 9208.340175 9173.848583 9355.212814 9412.785191 9437.365129 9308.184563 8933.951798 8382.148444 7897.265733 7474.166778 6975.309226 6428.670941 5859.179711 5212.402535 4607.998204 4130.179801 3806.543825 3520.933672 3048.483519 2530.211158 2188.853841 1904.567557 1819.988630 1810.584265 1813.405499 1828.379205 1846.858844 1857.522057 1854.751657 1835.172217 1797.815178 1743.623273 1674.840703 1594.437802 1505.642436 1411.597575 1315.139348 1218.675297 1124.138130 1032.991697 946.269887 864.633775 788.436419 717.788048 652.616909 592.722942 537.822889 487.586493 441.664165 399.706983 361.380153 326.371169 294.393879 265.189583 238.526107 214.195649 192.011985 171.807500 153.430312 136.741701 121.613914 107.928378 95.574315 84.447706 74.450540 65.490318 57.479712 50.336361 43.982744 38.346096 33.358346 28.956050 25.080311 21.676682 18.695039 16.089431 13.817907 11.842325 10.128144 8.644204 7.362499 6.257952 5.308184 4.493293 3.795635 3.199617 2.691501 2.259214 1.892180 1.581155 1.318078 1.095939 0.908650 0.750936 0.618231 0.506585 0.412579 0.333240 0.265936 0.208197 0.157060 0.109984 0.086196 9209.230774 9206.888647 9158.361973 9038.039140 8820.789370 8466.556494 8006.734244 7531.585778 7065.899859 6560.572531 6011.847680 5453.230820 4889.742896 4351.882391 3894.726191 3526.936138 3183.578792 2794.106667 2423.886157 2140.955111 1945.493598 1850.591261 1817.025693 1814.303413 1829.466103 1847.472802 1858.227647 1855.563845 1836.010384 1798.600448 1744.300323 1675.378624 1594.826309 1505.886377 1411.711545 1315.143222 1218.590881 1123.986857 1032.793175 946.041103 864.388758 788.186225 717.540963 652.378774 592.497540 537.612356 487.391707 441.485093 399.542983 361.230214 326.234098 294.268437 265.074574 238.420437 214.098349 191.922223 171.724573 153.353636 136.670789 121.548358 107.867833 95.518482 84.396316 74.403350 65.447095 57.440233 50.300409 43.950103 38.316554 33.331693 28.932079 25.058820 21.657475 18.677925 16.074228 13.804441 11.830433 10.117671 8.635005 7.354442 6.250914 5.302052 4.487964 3.791016 3.195623 2.688055 2.256250 1.889636 1.578977 1.316219 1.094357 0.907308 0.749802 0.617277 0.505790 0.411933 0.332756 0.265710 0.208590 0.159629 0.118118 0.091440 0.080437 9173.848583 9165.842768 9122.420716 9016.136337 8842.637809 8584.400399 8233.252188 7805.109832 7337.250283 6851.075191 6338.458652 5800.322150 5257.668652 4725.337107 4221.810221 3772.739889 3378.876629 3017.489014 2671.832244 2365.807365 2125.443424 1958.576534 1862.995974 1822.176655 1817.277622 1830.532308 1847.362483 1857.660109 1854.794192 1835.186681 1797.820059 1743.624932 1674.841278 1594.437999 1505.642503 1411.597598 1315.139356 1218.675299 1124.138131 1032.991697 946.269887 864.633775 788.436419 717.788048 652.616909 592.722942 537.822889 487.586493 441.664165 399.706983 361.380153 326.371169 294.393879 265.189583 238.526107 214.195649 192.011985 171.807500 153.430312 136.741701 121.613914 107.928378 95.574315 84.447706 74.450540 65.490318 57.479712 50.336361 43.982744 38.346096 33.358346 28.956050 25.080311 21.676682 18.695039 16.089431 13.817907 11.842325 10.128144 8.644204 7.362499 6.257952 5.308184 4.493293 3.795635 3.199617 2.691501 2.259214 1.892180 1.581155 1.318078 1.095939 0.908650 0.750937 0.618235 0.506597 0.412620 0.333373 0.266373 0.209636 0.161936 0.123475 0.095621 0.081475 0.077324 0.086196 0.074591 0.057471 0.045287 0.036071 0.028790 0.022960 0.018277 0.014517 0.011501 0.009090 0.007166 0.005634 0.004418 0.003456 0.002696 0.002097 0.001627 0.001259 0.000972 0.000748 0.000574 0.000439 0.000335 0.000255 0.000193 0.000146 0.000110 0.000083 0.000062 0.000046 0.000034 0.000026 0.000019 0.000014 0.000010 0.000007 0.000005 0.000004 0.000003 0.000002 0.000001 0.000001 0.000001 0.000001 0.000000 0.000000 0.000000 0.000000 0.000000 0.000000 0.000000 0.000000 0.000000 0.000000 0.000000 0.000000 0.000000 0.000000 0.000000 0.000000 0.000000 0.000000 0.000000 0.000000 0.000000 0.000000 0.000000 -0.000000 0.000000 0.000000 0.000000 0.000000 0.000000 0.000000 0.000000 0.000000 0.000000 0.000000 0.000000 0.000000 0.000000 -0.000000 0.000000 0.000000 0.000000 0.000000 0.000000 0.000000 0.000000 0.000000 0.000000 0.000000 0.000000 0.000000 0.000000 -0.000000 -0.000000 -0.000000 -0.000000 -0.000000 -0.000000 -0.000000 -0.000000 -0.000000 -0.000000 -0.000000 -0.000000 -0.000000 -0.000000 -0.000000 -0.000000 -0.000000 -0.000000 -0.000000 -0.000000 -0.000000 -0.000000 -0.000001 -0.000001 -0.000001 -0.000001 -0.000002 -0.000003 -0.000004 -0.000005 -0.000007 -0.000009 -0.000012 -0.000016 -0.000021 -0.000027 -0.000036 -0.000048 -0.000063 -0.000082 -0.000107 -0.000140 -0.000182 -0.000237 -0.000307 -0.000397 -0.000512 -0.000659 -0.000847 -0.001085 -0.001386 -0.001768 -0.002249 -0.002855 -0.003616 -0.004568 -0.005758 -0.007242 -0.009086 -0.011373 -0.014203 -0.017696 -0.021997 -0.027280 -0.033752 -0.041663 -0.051308 -0.063039 -0.077271 -0.094494 -0.115288 -0.140328 -0.170408 -0.206452 -0.249535 -0.300902 -0.361994 -0.434469 -0.520232 -0.621464 -0.740652 -0.880626 -1.044594 -1.236179 -1.459463 -1.719024 -2.019981 -2.368039 -2.769529 -3.231456 -3.761537 -4.368242 -5.060834 -5.849398 -6.744876 -7.759094 -8.904813 -10.195836 -11.647357 -13.277099 -15.109139 -17.186494 -19.625549 -22.633115 -24.507142 0.080437 0.077232 0.067887 0.055423 0.044663 0.035838 0.028681 0.022895 0.018232 0.014482 0.011474 0.009068 0.007148 0.005620 0.004407 0.003447 0.002688 0.002091 0.001623 0.001255 0.000969 0.000745 0.000572 0.000438 0.000334 0.000254 0.000193 0.000146 0.000110 0.000082 0.000062 0.000046 0.000034 0.000025 0.000019 0.000014 0.000010 0.000007 0.000005 0.000004 0.000003 0.000002 0.000001 0.000001 0.000001 0.000001 0.000000 0.000000 0.000000 0.000000 0.000000 0.000000 0.000000 0.000000 0.000000 0.000000 0.000000 0.000000 0.000000 0.000000 0.000000 0.000000 0.000000 0.000000 0.000000 0.000000 0.000000 0.000000 0.000000 -0.000000 -0.000000 0.000000 0.000000 0.000000 0.000000 -0.000000 0.000000 0.000000 0.000000 -0.000000 -0.000000 0.000000 0.000000 -0.000000 -0.000000 0.000000 0.000000 0.000000 -0.000000 0.000000 0.000000 0.000000 0.000000 -0.000000 0.000000 0.000000 0.000000 0.000000 -0.000000 -0.000000 -0.000000 -0.000000 -0.000000 -0.000000 -0.000000 -0.000000 -0.000000 -0.000000 -0.000000 -0.000000 -0.000000 -0.000000 -0.000000 -0.000000 -0.000000 -0.000000 -0.000000 -0.000000 -0.000000 -0.000001 -0.000001 -0.000001 -0.000001 -0.000002 -0.000003 -0.000004 -0.000005 -0.000007 -0.000009 -0.000012 -0.000016 -0.000021 -0.000027 -0.000036 -0.000047 -0.000062 -0.000082 -0.000107 -0.000140 -0.000182 -0.000236 -0.000306 -0.000396 -0.000511 -0.000657 -0.000844 -0.001082 -0.001383 -0.001763 -0.002244 -0.002848 -0.003607 -0.004557 -0.005745 -0.007225 -0.009066 -0.011349 -0.014173 -0.017660 -0.021953 -0.027226 -0.033687 -0.041584 -0.051214 -0.062925 -0.077135 -0.094332 -0.115095 -0.140099 -0.170137 -0.206133 -0.249159 -0.300461 -0.361477 -0.433866 -0.519530 -0.620648 -0.739707 -0.879535 -1.043338 -1.234738 -1.457813 -1.717141 -2.017838 -2.365607 -2.766778 -3.228353 -3.758047 -4.364330 -5.056460 -5.844522 -6.739447 -7.753043 -8.897999 -10.187896 -11.637192 -13.261194 -15.075872 -17.096703 -19.326606 -21.686612 -23.392672 -24.036511 0.077324 0.076598 0.072632 0.064183 0.054068 0.044269 0.035763 0.028697 0.022932 0.018269 0.014514 0.011501 0.009090 0.007165 0.005634 0.004418 0.003456 0.002696 0.002097 0.001627 0.001259 0.000972 0.000748 0.000574 0.000439 0.000335 0.000255 0.000193 0.000146 0.000110 0.000083 0.000062 0.000046 0.000034 0.000026 0.000019 0.000014 0.000010 0.000007 0.000005 0.000004 0.000003 0.000002 0.000001 0.000001 0.000001 0.000001 0.000000 0.000000 0.000000 0.000000 0.000000 0.000000 0.000000 0.000000 0.000000 0.000000 0.000000 0.000000 0.000000 0.000000 0.000000 0.000000 0.000000 0.000000 0.000000 0.000000 0.000000 0.000000 0.000000 -0.000000 0.000000 0.000000 0.000000 0.000000 0.000000 0.000000 0.000000 0.000000 0.000000 0.000000 -0.000000 0.000000 0.000000 -0.000000 0.000000 0.000000 0.000000 0.000000 0.000000 0.000000 0.000000 0.000000 0.000000 -0.000000 0.000000 0.000000 0.000000 0.000000 -0.000000 -0.000000 -0.000000 -0.000000 -0.000000 -0.000000 -0.000000 -0.000000 -0.000000 -0.000000 -0.000000 -0.000000 -0.000000 -0.000000 -0.000000 -0.000000 -0.000000 -0.000000 -0.000000 -0.000000 -0.000000 -0.000001 -0.000001 -0.000001 -0.000001 -0.000002 -0.000003 -0.000004 -0.000005 -0.000007 -0.000009 -0.000012 -0.000016 -0.000021 -0.000027 -0.000036 -0.000048 -0.000063 -0.000082 -0.000107 -0.000140 -0.000182 -0.000237 -0.000307 -0.000397 -0.000512 -0.000659 -0.000847 -0.001085 -0.001386 -0.001768 -0.002249 -0.002855 -0.003616 -0.004568 -0.005758 -0.007242 -0.009086 -0.011373 -0.014203 -0.017696 -0.021997 -0.027280 -0.033752 -0.041663 -0.051308 -0.063039 -0.077271 -0.094494 -0.115288 -0.140328 -0.170408 -0.206452 -0.249535 -0.300902 -0.361994 -0.434469 -0.520232 -0.621464 -0.740652 -0.880626 -1.044594 -1.236179 -1.459463 -1.719024 -2.019981 -2.368039 -2.769529 -3.231456 -3.761536 -4.368241 -5.060830 -5.849386 -6.744837 -7.758969 -8.904403 -10.194495 -11.642978 -13.262801 -15.062436 -17.034315 -19.121579 -21.141130 -22.776079 -23.585941 -23.777728 -24.507142 -27.343148 -32.655578 -37.981410 -43.476017 -49.285505 -55.460919 -62.030150 -69.012785 -76.424463 -84.277932 -92.583115 -101.346891 -110.572793 -120.260690 -130.406491 -141.001869 -152.034022 -163.485483 -175.333978 -187.552360 -200.108610 -212.965931 -226.082931 -239.413904 -252.909194 -266.515615 -280.176875 -293.833937 -307.425194 -320.886337 -334.149783 -347.143580 -359.789824 -372.002877 -383.688097 -394.742324 -405.058013 -414.533209 -423.089187 -430.695731 -437.400223 -443.351078 -448.800376 -454.068904 -459.460423 -465.114735 -470.699233 -474.551243 -473.198434 -461.186407 -449.412448 -431.214096 -430.321057 -456.158011 -531.174209 -521.111939 -448.450462 -457.702683 -568.440683 -727.285984 -778.661576 -852.702565 -1049.352221 -1273.573540 -1721.070784 -1945.952753 -1451.764701 -840.792381 -441.821722 -262.993434 -84.497261 119.241870 -62.557296 -549.732492 -992.487198 -1327.574159 -1190.710395 -380.180795 396.693550 -313.203924 -1806.888464 -2012.025876 -967.597326 102.896000 914.205893 1397.394573 1904.465973 2262.696600 2374.384450 2750.219476 2814.733383 2351.898548 1952.893451 2088.109078 2582.721884 3158.954693 3461.393324 3956.298895 5534.780706 7276.483869 -24.036511 -25.316428 -28.398935 -32.999397 -38.062756 -43.488540 -49.276893 -55.445376 -62.011982 -68.993367 -76.404293 -84.257249 -92.562093 -101.325693 -110.551588 -120.239660 -130.385830 -140.981782 -152.014723 -163.467190 -175.316916 -187.536752 -200.094676 -212.953882 -226.072965 -239.406204 -252.903923 -266.512914 -280.176870 -293.836743 -307.430932 -320.895152 -334.161871 -347.159212 -359.809357 -372.026741 -383.716716 -394.775959 -405.096491 -414.575556 -423.133241 -430.737913 -437.435741 -443.374883 -448.809003 -454.063117 -459.449380 -465.125560 -470.849873 -475.383675 -475.933219 -468.896769 -455.416961 -439.610518 -428.422146 -427.353962 -435.711113 -425.674431 -410.303581 -489.491844 -644.955560 -771.833447 -832.836239 -926.903076 -1113.146984 -1327.051364 -1542.329159 -1657.051045 -1444.735777 -967.956416 -648.458083 -654.101136 -574.580223 -388.205763 -422.078577 -684.217219 -978.276001 -1227.192363 -1289.587963 -983.609851 -591.280645 -710.262537 -1138.986070 -1089.405958 -420.423796 351.676198 1033.466726 1608.220723 2160.928876 2537.362345 2813.232464 3118.762759 3195.021584 2993.222220 2810.582656 3030.244249 3574.533243 4146.831755 4545.894261 5257.655659 6742.781339 8299.310171 9311.736127 -23.777728 -24.253545 -25.892097 -29.068859 -33.272754 -38.166392 -43.532866 -49.302909 -55.466251 -62.031783 -69.013285 -76.424616 -84.277979 -92.583129 -101.346896 -110.572794 -120.260690 -130.406491 -141.001869 -152.034022 -163.485483 -175.333978 -187.552360 -200.108610 -212.965931 -226.082931 -239.413904 -252.909194 -266.515615 -280.176875 -293.833937 -307.425194 -320.886337 -334.149783 -347.143580 -359.789824 -372.002877 -383.688097 -394.742324 -405.058013 -414.533208 -423.089188 -430.695743 -437.400294 -443.351363 -448.801272 -454.071686 -459.470285 -465.152920 -470.914478 -475.786862 -477.616182 -474.131468 -465.104438 -451.092999 -433.432664 -417.992387 -403.371283 -391.653719 -413.149173 -515.070861 -657.305134 -774.155636 -860.266965 -966.432339 -1122.865046 -1286.827127 -1402.000202 -1431.178821 -1293.513303 -996.996702 -791.762431 -770.789092 -716.772082 -609.338182 -621.899705 -779.087215 -967.088322 -1109.251014 -1149.926071 -1041.008995 -899.532293 -892.724723 -916.390093 -683.824888 -150.364406 485.574535 1110.864162 1724.046843 2283.053848 2707.525007 2999.053914 3204.132025 3312.825620 3318.745357 3368.629832 3668.616382 4184.641241 4746.676030 5344.825060 6206.085053 7456.350271 8786.855692 9688.355079 10039.828444 737.969100 1269.624984 -1854.884272 1014.745202 1763.182991 1206.743408 1671.521349 1369.451402 1078.858943 2060.685101 3017.677477 403.311420 1360.653632 1543.607581 1519.086618 1777.896029 1331.999101 3493.470328 2890.246028 4587.576305 695.002648 -448.537326 1441.593316 -87.392267 1140.666629 1396.027891 228.036543 1338.819445 1199.560451 1932.496040 1300.014927 1827.784038 1932.184903 1166.433772 1391.547470 2537.336800 1884.596271 1810.711495 2935.111845 3990.554023 -225.772439 1691.081956 -382.496318 1163.929607 320.962362 1625.012332 3867.649840 1123.563516 1676.077728 1163.699921 1168.398562 1760.664240 609.456402 1784.140684 2110.252154 3801.489747 2908.228563 2171.485847 3498.723785 2462.537073 6894.989349 944.544441 -40994.966740 1170.698095 2742.872821 6188.136556 1182.296004 1349.320763 1251.677765 2305.118077 2561.260010 9966.920820 1118.335653 1892.307126 2376.026180 3004.656288 1014.412373 2745.861234 3537.212942 4347.977940 -439.269529 -699.631934 -38693.492353 744.748058 -410.011713 -328.439751 -27170.372902 -43281.652794 1384.546746 1899.328498 2985.997911 -403.151775 -726.906893 2247.999476 888.060520 2603.353770 1702.117509 11973.948641 3673.234843 3901.451955 -598.917931 3382.107532 4717.632417 1295.063734 9216.635900 -24304.965920 2072.929701 7281.345789 1922.298653 943.529481 8576.746583 -678.697385 2131.937710 -683.260851 -813.219844 3527.681451 1974.392068 2116.241444 2947.933727 1342.750579 -1097.283281 1493.719420 5532.829263 -5641.257499 1785.065449 -37286.816506 -2055.198407 1274.828015 -33330.518176 1478.280707 18517.661814 -1668.747412 -2897.519576 3290.478682 8049.152666 -23039.708986 1445.105371 3212.147910 2568.934842 3641.389915 -17567.567787 -777.416343 -26117.497349 3114.961368 2566.985147 -2094.235643 -27984.415604 5338.398289 3054.514528 5580.505536 1350.615698 5874.460463 2377.163247 4684.218714 1553.708192 1495.168588 7158.377250 1330.126558 8045.893838 3111.973218 3117.359411 -5542.871347 -944.797547 -1215.365300 -26447.092396 4963.427367 4064.152002 6190.364933 1013.105234 3621.636111 5348.066999 1726.292513 449.939921 6537.821592 866.296548 9676.549034 -4175.929983 965.040197 1372.490469 3929.732081 -37636.943301 5029.927610 4830.316983 6431.860609 1606.822333 -24954.560551 -18604.632475 9735.034728 -412.960712 1035.739127 -26905.780635 -45884.489222 2763.325801 -32015.065836 3540.923604 364.317762 -23574.528077 3822.240488 4744.821727 -375.765619 -38879.067600 7066.228045 -33580.358372 5080.122743 5065.219961 2912.332526 17997.945623 3238.360981 -44148.008520 9211.035487 4126.942712 2270.880440 2347.525214 5885.110606 3449.366561 -15226.963281 3295.984223 -2256.472418 3402.809592 2910.889855 5799.706067 -26374.124552 -27576.310394 6202.744552 2160.368705 3833.923749 2611.698300 -2265.850374 4646.420433 5108.646088 5822.671006 -31060.583129 3177.073498 3158.476709 4279.262491 -6406.817621 -2692.548704 1377.426391 5069.637917 -37493.436044 -38499.413166 6463.070496 1847.163858 -1696.132615 18739.864226 -44176.358580 2164.094811 4020.906247 -1394.535708 4003.725398 2034.279268 5563.923041 3723.866293 2222.366572 6323.660920 3145.551703 -45131.812768 7337.364934 7605.019869 7119.490949 1260.279190 -5251.571014 5738.117616 -294.756612 -6774.923093 4851.551576 3522.374690 5495.495069 1142.139410 2126.216857 9633.795828 1876.742695 2383.628687 7854.255321 1451.405214 -4564.027264 6517.835485 8333.889503 -31771.622765 2782.062908 2019.433451 5920.752418 5514.698984 6247.828236 6245.665288 3890.200298 6372.815904 4551.101736 6185.325257 2504.841658 4320.777499 6365.674243 5167.038547 5063.559755 4533.649152 7145.559752 7345.041590 7229.760023 6633.256547 8565.727019 3064.801739 4627.966081 -6047.323897 -27705.791893 3423.675797 5550.266806 4669.659282 4923.019435 3988.491046 5842.564879 5904.454552 6525.259911 -33237.898292 5377.535420 5905.118122 6524.073822 8395.420411 -2303.490495 3354.526856 8261.016874 5375.531159 6316.677922 7601.636346 6027.730315 3957.222500 -40891.495443 5887.313789 4895.512644 5691.559791 5744.365371 8267.264669 6408.721230 7567.668373 7188.733573 5243.271937 8227.891612 -2364.506998 -26602.796830 -4429.736187 -43595.471477 7461.388249 2617.466246 5048.867076 5143.453646 5326.886750 3401.451967 8015.654587 7177.581986 7474.381751 5986.788732 5468.559192 7620.171418 3566.670804 8470.959877 7722.162813 8298.517300 -5721.574402 7320.735321 7230.214918 -30692.304419 8947.125938 8116.020779 2490.489507 8295.610405 8850.034125 9045.726561 7626.460558 11250.444076 6680.909129 7258.355845 7544.775954 10919.279242 6659.833918 8682.944547 7949.190271 6547.860729 7021.793816 8034.150006 6802.171962 5454.941741 7703.992787 5984.846983 6181.498534 7933.598558 7578.046889 7080.725174 7851.320802 6671.297835 5482.582973 8990.482936 12393.987407 11777.798518 8124.443091 6467.526012 9552.421145 9149.382767 9056.064080 3091.856745 -37370.417713 2271.022527 6598.816028 7349.184776 7991.493435 6500.538905 6642.055197 7492.418304 10254.159085 8232.324196 6563.878700 7725.882187 10657.652034 7868.953870 9846.819731 6291.484908 10568.742958 8698.126109 8775.901584 8448.044437 10106.623396 3311.448485 9386.391625 6997.550705 8472.121074 5753.500589 6466.320994 6667.089285 9077.671203 7087.163276 9988.126705 7273.465272 8477.289845 9552.351691 7990.162661 11601.819367 8225.929651 8916.910586 9281.276847 7375.827393 5964.288682 2265.232358 9842.617479 6196.452322 5805.934979 6244.325648 6975.049618 6357.725261 6072.873331 9137.872120 5841.781305 6797.954488 10897.670783 8565.012121 9714.959646 12047.894212 12250.967139 11767.317921 10336.463948 8987.771715 -7144.141174 8231.751618 10006.611493 7415.241360 7946.767647 5617.884648 7460.388785 4827.982874 8922.102799 10974.754639 11078.942023 7511.296907 8318.292597 8313.794486 12469.936800 9308.565841 11900.577182 9453.616120 4340.327328 13422.960061 6747.936046 -4982.697937 7600.465299 11396.527970 7327.433173 8128.584057 10367.260903 7406.702317 11632.488290 7743.469836 9311.112199 10285.266849 10618.537372 9357.451547 12846.401181 8582.546438 12466.724523 10399.059554 9474.337230 10667.176155 4737.378476 7958.073245 7197.880989 11759.743201 10996.644665 9411.226662 10682.603111 10297.708072 8592.801089 12203.967881 8418.532786 11969.880123 12560.317103 11691.525879 13308.477334 12437.746160 11066.646133 9075.076123 13184.597668 7487.083709 7810.601246 7559.080697 13706.197313 11910.242154 6783.588421 8865.310655 5957.759948 11101.022360 9622.848238 9075.104419 12080.075779 14213.098583 13120.811966 11981.533504 11447.277012 13334.970544 7727.095127 8521.836778 13761.747675 9378.297861 4944.210382 466.622390 7765.212484 5115.385314 9204.239336 7083.030565 6268.044465 5593.157122 10046.727747 11424.768123 12492.962088 12378.674726 12247.499434 10357.549792 9909.123882 12545.242985 13464.102972 11294.777013 7763.577677 12359.143316 7034.855913 8662.415770 4644.430502 6826.133525 3445.625126 9670.077165 10485.527078 10443.039742 8749.187966 8883.535678 7258.004786 14240.057402 9169.200191 11002.772345 13787.203798 14100.129847 13262.639182 13309.459078 13712.728673 13991.247512 13741.398021 9286.040229 593.406158 5559.107887 3276.311055 6105.889410 8460.199478 9568.249345 6732.622745 8515.499593 8299.584358 10700.951220 9255.251277 12460.448421 8581.680107 9477.335989 11147.944089 14176.327832 12526.477466 12614.422212 10052.683020 6667.215720 910.278155 1406.634074 989.852555 4645.462703 2483.485914 6712.360453 8407.196805 8943.362454 7560.826239 9522.727259 8888.044947 7938.268415 11313.160216 10678.866345 12864.669718 13775.090417 10958.509117 12173.986172 6911.363991 10173.394347 1267.796694 2700.328923 439.720578 902.265815 7647.111987 3803.420497 7782.968942 5966.470722 7545.941667 7773.017023 6463.573010 7066.884907 8693.616600 13306.576496 11148.139272 13104.126740 11152.889317 13297.907027 7483.648842 8107.782401 1170.822049 1021.936001 1234.126465 700.089672 1844.306824 5749.329841 4630.352641 6629.477751 7073.768600 8119.124981 6653.822613 8954.947718 15066.376172 9811.100061 10847.298951 13040.259739 13074.995747 10683.006967 8196.775418 10075.618120 1081.924520 964.061024 1728.964398 587.671538 3149.905887 5862.425830 4318.655957 6262.457239 7389.939980 5742.514717 8273.582565 8826.335559 7584.375615 8607.175803 12313.515766 11724.521413 11415.236823 12694.895550 7285.687166 7301.471488 1168.131869 634.361427 1123.051004 685.129638 3209.033778 4094.911228 4828.385480 5718.058083 8065.062901 7823.861609 9639.724902 10504.140189 8454.673947 12892.250625 13876.638208 14913.592098 11593.585176 14336.002123 11643.653665 10835.260820 1867.108442 418.694309 1168.806633 2657.347005 3802.237065 2464.911734 3158.075601 3868.531969 4397.245102 5131.319178 8926.198172 9448.741332 10885.262838 8972.780227 9761.281533 13456.247360 13231.926213 14335.150764 12074.672333 7571.016561 3250.399533 1693.043875 560.844502 71.613390 3324.488317 3578.897000 3451.544339 4513.471214 7619.937293 5072.232166 7762.456862 8184.366109 9339.485038 10794.206255 10292.833623 13456.930228 14411.512407 14427.003668 8642.971141 11235.673588 172.707229 1279.483941 1952.554431 2040.652098 1086.