<VTKFile type="PolyData">
<PolyData>
<Piece NumberOfPoints="6715" NumberOfVerts="6715" NumberOfLines="0" NumberOfStrips="0" NumberOfPolys="0">
<PointData>
<DataArray type="Float64" Name="Pressure" format="ascii">
 22841.465820 23493.573045 24281.801579 24883.949765 25284.897592 25378.397721 25066.431290 24526.397832 24045.613937 24017.024269 25187.533768 28601.181659 34747.466770 46291.643950 57971.346772 66311.319255 72571.758481 77772.316863 76539.965007 67518.817133 54342.220699 39645.148226 28186.875453 22207.714250 19231.359052 18385.501242 18784.725904 19647.590821 20397.993117 20997.560086 21513.077036 21761.182395 21757.034563 21530.846106 21201.757574 20845.819684 20344.112281 19719.141126 19165.056175 18750.085637 18414.145194 18279.137743 18081.641133 17920.654458 17773.120823 17599.005773 17427.183727 17179.035836 16938.744078 16805.406755 16751.956730 16730.888736 16669.094928 16653.422351 16711.109166 16839.053192 17010.022528 17159.433359 17251.637021 17265.845835 17232.522856 17091.605348 16831.033369 16538.441779 16383.407266 16359.579748 16275.963875 16059.831219 15805.862618 15514.975086 15216.874774 14920.971466 14615.690866 14368.787439 14293.734672 14271.684408 14186.444113 14069.737089 13951.838561 13880.654410 13840.377708 13846.282578 13984.020718 14275.467650 14615.610940 15090.753798 15502.132240 15827.574369 16109.197323 16335.693876 16409.724067 16303.290394 16110.233476 15896.998866 15699.667237 15530.978443 15404.214203 15323.098215 15283.818914 15274.433142 15254.159092 15232.829428 15199.503776 15177.489935 15155.332048 15156.096211 15135.509506 15088.695684 15037.231963 14974.533531 14897.540692 14815.019189 14742.623520 14662.641137 14589.548534 14531.453935 14487.945059 14448.601142 14415.789819 14383.092692 14343.663116 14304.741160 14250.760946 14192.197336 14128.917137 14078.166110 14029.239744 13991.877339 13941.772182 13854.054544 13703.244999 13534.452207 13365.268214 13246.351113 13163.954129 13088.530235 13015.878752 12942.030299 12871.467734 12769.892884 12625.732977 12443.666432 12292.935502 12164.116439 12046.554700 11935.584611 11829.263444 11745.433254 11683.508559 11639.847800 11602.611726 11569.428620 11535.380808 11506.290772 11479.737508 11423.558610 11346.900922 11249.832388 11145.728177 11031.457329 10904.609783 10789.663985 10667.623991 10555.366783 10461.195139 10379.909356 10308.496133 10240.539214 10166.017181 10079.429491 9992.461142 9902.766300 9823.921333 9732.113883 9650.829101 9595.879173 9568.003989 9551.558018 9536.880218 9536.109274 9537.409750 9541.632378 9548.663022 9555.421147 9581.751829 9622.092033 9664.928863 9722.306165 9785.827199 9841.790446 9887.898700 9928.339376 9968.661399 10018.858500 10052.802074 10083.482115 10141.022390 10225.258985 10335.656162 10479.309751 10612.011719 21884.133168 22415.779040 23155.296592 23952.304803 24620.495851 25090.490279 25285.915193 25194.842704 24838.705044 24405.247219 24274.567784 25042.202047 27475.970530 31974.052748 39062.400204 48335.706894 55917.689006 59853.620727 62251.281991 60120.190925 52760.390998 43958.417458 34573.065751 26839.507583 22279.748865 20024.001594 19435.714306 19755.404561 20388.674790 21048.867669 21579.733353 21976.125795 22187.532284 22177.635095 21947.541445 21581.889395 21145.764512 20643.224825 20127.671468 19633.363872 19228.440705 18929.918390 18745.311837 18581.026084 18423.226797 18250.898674 18019.317883 17776.821302 17514.916950 17260.817891 17072.155840 16960.835593 16925.610534 16924.449553 16933.563109 17003.869003 17110.909180 17240.275419 17349.567402 17404.961241 17385.254457 17279.826599 17087.512539 16837.325109 16611.123905 16486.956927 16418.378401 16321.530933 16146.728904 15894.156417 15592.248466 15284.217608 14991.461817 14734.837768 14538.083305 14431.063480 14376.599587 14317.154204 14228.068319 14135.388305 14054.861016 14004.238943 14029.558436 14168.479848 14408.175125 14753.797710 15205.578465 15643.219473 15998.115383 16277.809900 16475.271147 16536.222187 16443.297083 16246.102899 16018.370219 15809.234850 15640.213007 15505.771591 15410.994313 15351.396057 15319.109420 15295.236016 15261.665495 15218.771529 15190.461778 15190.929263 15184.437525 15151.060825 15111.595760 15078.553663 15031.157525 14946.662090 14856.137153 14777.827822 14702.031385 14626.127797 14559.292265 14507.121581 14469.372132 14442.667613 14420.357062 14388.783552 14344.626369 14293.712974 14236.903094 14175.398627 14120.709051 14072.342982 14023.560763 13970.590411 13886.568222 13734.879507 13567.618815 13406.469970 13278.684921 13189.648133 13117.100709 13048.800800 12975.541531 12892.713087 12790.281380 12663.969739 12517.410215 12373.186327 12233.679215 12102.273774 11982.834927 11885.747674 11812.257829 11753.241131 11707.880787 11673.283923 11645.110855 11615.022189 11584.548968 11552.090049 11500.649287 11420.440481 11316.171349 11202.928740 11089.484969 10974.009963 10858.255522 10743.984554 10640.135445 10554.671853 10488.919793 10429.287006 10367.819575 10298.064006 10210.958631 10121.144073 10036.159832 9947.920010 9860.461759 9788.407306 9742.744351 9716.154537 9698.938230 9690.035372 9689.819681 9692.671307 9696.801855 9707.917663 9723.793045 9746.980803 9782.485689 9824.996708 9879.920966 9944.601681 10010.689029 10069.550651 10125.082726 10173.941349 10221.127510 10264.326793 10310.649247 10375.672031 10459.848177 10562.343830 10683.266168 10797.909531 10891.086494 21418.996870 21655.813510 22211.972583 22980.310150 23759.633499 24440.968703 24934.763450 25176.836926 25142.754194 24866.464112 24515.163175 24416.444060 25053.737330 26979.106260 30624.983723 36140.862185 43014.203861 49179.345280 52707.937023 53741.575294 51515.649505 46084.430260 38961.709067 31811.471311 26010.263836 22260.139318 20390.232195 19871.860470 20135.507769 20715.888331 21325.834936 21828.076712 22170.052000 22329.436007 22288.377438 22063.950553 21709.503991 21265.677456 20770.045818 20267.074843 19804.178045 19425.242933 19146.974602 18953.839859 18803.523486 18653.445625 18473.193855 18237.570556 17958.769033 17669.219929 17407.199914 17208.110590 17087.055038 17033.569868 17028.673680 17059.432435 17130.053440 17229.241266 17335.485762 17421.428998 17454.087954 17412.175212 17287.867730 17095.787954 16873.008632 16675.712268 16536.023682 16431.097286 16313.253707 16142.478027 15904.369769 15615.209819 15308.067643 15017.525060 14774.318022 14596.651023 14483.853902 14416.764406 14360.089249 14288.811014 14203.969537 14119.175656 14070.896698 14103.011749 14240.877371 14487.268304 14836.825506 15260.430077 15689.538515 16060.441134 16341.377930 16511.779742 16551.138411 16460.510633 16279.560846 16062.445529 15851.709210 15671.833685 15531.593155 15431.444259 15365.708837 15325.434841 15297.007236 15264.522844 15227.146992 15201.036867 15191.321515 15176.884737 15149.107157 15116.528800 15081.170040 15027.840597 14949.714097 14864.185747 14781.423606 14702.155921 14627.607399 14563.218688 14512.608937 14475.789171 14449.279056 14425.988087 14394.192044 14349.316734 14296.930264 14240.993672 14185.559857 14134.337110 14085.713044 14031.652548 13964.648177 13867.666386 13727.951033 13569.017044 13414.639531 13285.722391 13189.165864 13116.394094 13051.190042 12981.449729 12897.745796 12795.304056 12672.851088 12535.633807 12393.972099 12254.767286 12123.043871 12005.540431 11907.857329 11830.916781 11771.608661 11726.444299 11693.659530 11667.848858 11641.988951 11612.207236 11573.886807 11518.107332 11437.422458 11336.084703 11223.202474 11106.120321 10988.493875 10873.657339 10766.445103 10671.197216 10591.969008 10526.991019 10468.169016 10408.033121 10339.480189 10258.800310 10171.513703 10084.309270 9997.812145 9916.746000 9851.013351 9806.152268 9779.307466 9764.687915 9758.824594 9758.592615 9760.216049 9763.212780 9771.706827 9786.833487 9810.576141 9847.019176 9894.692987 9951.806984 10015.782990 10081.441219 10144.209616 10202.888636 10257.788425 10309.955681 10360.747212 10414.816425 10480.820679 10564.079297 10663.768965 10774.947834 10886.962936 10978.265173 11023.092760 10612.011719 10268.330283 9720.365465 9126.833478 8538.247774 7954.257138 7389.340944 6828.103737 6268.177074 5714.315441 5199.241234 4641.942712 4130.626695 3656.168642 3211.121773 2793.038536 2494.506439 2239.208871 2095.735388 1988.236194 1971.748951 1986.282487 1977.308264 1942.971893 1885.299054 1806.405074 1709.929806 1600.234761 1481.727611 1358.468279 1234.004554 1111.326061 992.867420 880.525558 775.684527 679.250057 591.696793 513.127727 443.342244 381.907614 328.228677 281.611348 241.316918 206.605512 176.768354 151.149497 129.158358 110.274803 94.048635 80.095248 68.088991 57.755471 48.863713 41.218805 34.655361 29.032002 24.226836 20.133885 16.660321 13.724360 11.253687 9.184246 7.459323 6.028807 4.848576 3.879957 3.089239 2.447214 1.928735 1.512298 1.179639 0.915351 0.706530 0.542440 0.414208 0.314553 0.237539 0.178356 0.133136 0.098783 0.072839 0.053364 0.038834 0.028062 0.020128 0.014323 0.010107 0.007067 0.004893 0.003350 0.002266 0.001511 0.000991 0.000637 0.000400 0.000243 0.000141 0.000076 0.000034 0.000005 -0.000006 10891.086494 10682.763149 10293.783008 9761.148617 9187.672872 8602.769213 8018.547614 7446.096899 6883.671799 6329.478703 5784.419683 5250.877559 4719.395222 4208.758395 3723.485430 3279.988522 2885.948159 2572.721317 2329.632935 2168.654831 2066.240090 2020.602047 2003.153010 1982.956295 1945.581001 1886.803182 1807.397863 1710.603054 1600.665758 1481.959559 1358.534016 1233.932224 1111.141578 992.595291 880.189140 775.305701 678.848644 591.289945 512.729491 442.963378 381.555657 327.908224 281.324482 241.063708 206.384538 176.577194 150.985157 129.017614 110.154461 93.945705 80.007049 68.013196 57.690113 48.807164 41.169732 34.612683 28.994843 24.194480 20.105740 16.635889 13.703215 11.235453 9.168592 7.445949 6.017441 4.838969 3.871884 3.082495 2.441613 1.924111 1.508503 1.176543 0.912841 0.704507 0.540819 0.412917 0.313531 0.236734 0.177727 0.132646 0.098404 0.072548 0.053142 0.038665 0.027934 0.020032 0.014252 0.010055 0.007029 0.004864 0.003330 0.002251 0.001500 0.000983 0.000632 0.000396 0.000241 0.000140 0.000075 0.000034 0.000008 -0.000005 -0.000010 11023.092760 10935.692482 10691.120559 10279.780276 9772.709295 9211.204193 8629.839819 8047.900725 7474.711029 6911.872162 6358.508250 5813.978286 5277.602532 4750.450974 4240.694835 3758.902208 3317.666847 2931.656245 2614.987163 2372.896511 2204.536234 2099.621453 2043.415579 2013.581538 1986.340091 1946.088586 1886.370706 1806.774033 1710.056625 1600.278491 1481.742511 1358.473368 1234.006239 1111.326613 992.867593 880.525611 775.684542 679.250061 591.696794 513.127727 443.342244 381.907614 328.228677 281.611348 241.316918 206.605512 176.768354 151.149497 129.158358 110.274803 94.048635 80.095248 68.088991 57.755471 48.863713 41.218805 34.655361 29.032002 24.226836 20.133885 16.660321 13.724360 11.253687 9.184246 7.459323 6.028807 4.848576 3.879957 3.089239 2.447214 1.928735 1.512298 1.179639 0.915351 0.706530 0.542440 0.414208 0.314553 0.237539 0.178356 0.133136 0.098783 0.072839 0.053364 0.038834 0.028062 0.020128 0.014323 0.010107 0.007067 0.004893 0.003350 0.002266 0.001511 0.000991 0.000637 0.000400 0.000243 0.000141 0.000076 0.000036 0.000011 -0.000003 -0.000010 -0.000011 -0.000006 -0.000008 -0.000009 -0.000009 -0.000007 -0.000006 -0.000005 -0.000004 -0.000003 -0.000002 -0.000002 -0.000001 -0.000001 -0.000001 -0.000001 -0.000000 -0.000000 -0.000000 -0.000000 -0.000000 -0.000000 -0.000000 -0.000000 -0.000000 -0.000000 -0.000000 -0.000000 -0.000000 -0.000000 -0.000000 -0.000000 -0.000000 -0.000000 -0.000000 -0.000000 -0.000000 -0.000000 0.000000 0.000000 0.000000 -0.000000 -0.000000 0.000000 -0.000000 0.000000 0.000000 0.000000 0.000000 0.000000 0.000000 0.000000 0.000000 0.000000 0.000000 0.000000 0.000000 0.000000 0.000000 0.000000 0.000000 0.000000 0.000000 0.000000 0.000000 0.000000 0.000000 0.000000 0.000000 -0.000000 0.000000 0.000000 0.000000 0.000000 0.000000 0.000000 0.000000 0.000000 0.000000 0.000000 0.000000 0.000000 0.000000 -0.000000 0.000000 0.000000 0.000000 0.000000 0.000000 0.000000 0.000000 0.000000 0.000000 0.000000 0.000000 0.000000 0.000000 0.000000 0.000000 -0.000000 0.000000 0.000000 -0.000000 0.000000 0.000000 0.000000 0.000000 -0.000000 -0.000000 -0.000000 -0.000000 -0.000000 -0.000000 -0.000000 -0.000000 -0.000000 -0.000000 -0.000000 -0.000000 -0.000000 -0.000000 -0.000000 -0.000000 -0.000000 -0.000000 -0.000000 -0.000000 -0.000000 -0.000000 -0.000000 0.000000 -0.000000 -0.000000 -0.000000 -0.000000 -0.000000 -0.000000 -0.000000 -0.000000 -0.000000 -0.000000 -0.000000 -0.000000 -0.000000 -0.000000 -0.000000 -0.000000 -0.000000 -0.000000 -0.000000 -0.000000 -0.000000 -0.000001 -0.000001 -0.000001 -0.000002 -0.000003 -0.000005 -0.000007 -0.000010 -0.000015 -0.000022 -0.000032 -0.000046 -0.000067 -0.000096 -0.000137 -0.000195 -0.000277 -0.000392 -0.000552 -0.000774 -0.001081 -0.001503 -0.002082 -0.002871 -0.003945 -0.005398 -0.007356 -0.009983 -0.013494 -0.018166 -0.024356 -0.032524 -0.043254 -0.057292 -0.075578 -0.099295 -0.129927 -0.169319 -0.219760 -0.284070 -0.365713 -0.468924 -0.598873 -0.761908 -0.966001 -1.221857 -1.546166 -1.974542 -2.574205 -2.979340 -0.000010 -0.000009 -0.000009 -0.000009 -0.000009 -0.000007 -0.000006 -0.000005 -0.000004 -0.000003 -0.000002 -0.000002 -0.000001 -0.000001 -0.000001 -0.000001 -0.000000 -0.000000 -0.000000 -0.000000 -0.000000 -0.000000 -0.000000 -0.000000 -0.000000 -0.000000 -0.000000 -0.000000 -0.000000 -0.000000 -0.000000 -0.000000 -0.000000 -0.000000 -0.000000 0.000000 0.000000 0.000000 0.000000 -0.000000 0.000000 0.000000 0.000000 0.000000 -0.000000 0.000000 0.000000 0.000000 0.000000 0.000000 0.000000 0.000000 0.000000 0.000000 0.000000 0.000000 0.000000 0.000000 0.000000 0.000000 0.000000 0.000000 0.000000 0.000000 0.000000 0.000000 0.000000 0.000000 0.000000 0.000000 -0.000000 0.000000 -0.000000 0.000000 0.000000 -0.000000 0.000000 0.000000 0.000000 -0.000000 -0.000000 0.000000 0.000000 -0.000000 -0.000000 0.000000 0.000000 0.000000 -0.000000 0.000000 0.000000 0.000000 0.000000 -0.000000 0.000000 0.000000 0.000000 0.000000 -0.000000 -0.000000 0.000000 0.000000 0.000000 -0.000000 0.000000 0.000000 0.000000 0.000000 -0.000000 -0.000000 -0.000000 -0.000000 -0.000000 -0.000000 -0.000000 -0.000000 -0.000000 -0.000000 -0.000000 -0.000000 -0.000000 -0.000000 -0.000000 -0.000000 -0.000000 -0.000000 -0.000000 -0.000000 0.000000 -0.000000 -0.000000 -0.000000 -0.000000 0.000000 -0.000000 -0.000000 -0.000000 -0.000000 -0.000000 -0.000000 -0.000000 -0.000000 -0.000000 -0.000000 -0.000000 -0.000000 -0.000000 -0.000000 -0.000000 -0.000000 -0.000000 -0.000000 -0.000001 -0.000001 -0.000001 -0.000002 -0.000003 -0.000005 -0.000007 -0.000010 -0.000015 -0.000022 -0.000032 -0.000046 -0.000066 -0.000095 -0.000136 -0.000194 -0.000276 -0.000390 -0.000549 -0.000770 -0.001075 -0.001496 -0.002072 -0.002859 -0.003928 -0.005375 -0.007326 -0.009943 -0.013442 -0.018098 -0.024267 -0.032409 -0.043105 -0.057101 -0.075333 -0.098983 -0.129532 -0.168820 -0.219132 -0.283282 -0.364725 -0.467672 -0.597236 -0.759588 -0.962129 -1.213657 -1.524322 -1.903125 -2.341214 -2.669465 -2.782537 -0.000011 -0.000011 -0.000011 -0.000010 -0.000010 -0.000009 -0.000007 -0.000006 -0.000005 -0.000004 -0.000003 -0.000002 -0.000002 -0.000001 -0.000001 -0.000001 -0.000001 -0.000000 -0.000000 -0.000000 -0.000000 -0.000000 -0.000000 -0.000000 -0.000000 -0.000000 -0.000000 -0.000000 -0.000000 -0.000000 -0.000000 -0.000000 -0.000000 -0.000000 -0.000000 -0.000000 -0.000000 0.000000 0.000000 0.000000 0.000000 0.000000 0.000000 0.000000 0.000000 0.000000 0.000000 0.000000 0.000000 0.000000 0.000000 0.000000 0.000000 0.000000 0.000000 0.000000 0.000000 0.000000 0.000000 0.000000 0.000000 0.000000 0.000000 0.000000 0.000000 0.000000 0.000000 0.000000 0.000000 0.000000 -0.000000 0.000000 0.000000 0.000000 0.000000 0.000000 0.000000 0.000000 0.000000 0.000000 0.000000 -0.000000 0.000000 0.000000 -0.000000 0.000000 0.000000 0.000000 0.000000 0.000000 0.000000 0.000000 0.000000 0.000000 -0.000000 0.000000 0.000000 0.000000 0.000000 -0.000000 -0.000000 0.000000 0.000000 0.000000 0.000000 0.000000 0.000000 0.000000 -0.000000 -0.000000 -0.000000 -0.000000 -0.000000 -0.000000 -0.000000 -0.000000 -0.000000 -0.000000 -0.000000 -0.000000 -0.000000 -0.000000 -0.000000 -0.000000 -0.000000 -0.000000 -0.000000 -0.000000 0.000000 0.000000 0.000000 -0.000000 0.000000 0.000000 0.000000 0.000000 -0.000000 -0.000000 -0.000000 -0.000000 -0.000000 -0.000000 -0.000000 -0.000000 -0.000000 -0.000000 -0.000000 -0.000000 -0.000000 -0.000000 -0.000000 -0.000000 -0.000000 -0.000001 -0.000001 -0.000001 -0.000002 -0.000003 -0.000005 -0.000007 -0.000010 -0.000015 -0.000022 -0.000032 -0.000046 -0.000067 -0.000096 -0.000137 -0.000195 -0.000277 -0.000392 -0.000552 -0.000774 -0.001081 -0.001503 -0.002082 -0.002871 -0.003945 -0.005398 -0.007356 -0.009983 -0.013494 -0.018166 -0.024356 -0.032524 -0.043254 -0.057292 -0.075578 -0.099295 -0.129927 -0.169319 -0.219757 -0.284061 -0.365685 -0.468833 -0.598573 -0.760917 -0.962729 -1.211059 -1.510597 -1.855830 -2.212085 -2.509658 -2.649705 -2.675668 -2.979340 -3.797073 -5.404013 -7.128460 -9.043862 -11.233026 -13.755907 -16.670201 -20.035445 -23.914107 -28.371607 -33.475907 -39.296822 -45.905107 -53.371325 -61.764506 -71.150613 -81.590830 -93.139714 -105.843252 -119.736886 -134.843565 -151.171899 -168.714496 -187.446536 -207.324646 -228.286097 -250.248325 -273.108716 -296.744573 -321.013131 -345.751467 -370.776209 -395.883013 -420.846020 -445.417790 -469.330685 -492.301158 -514.038880 -534.262826 -552.726126 -569.250419 -583.768608 -596.371266 -607.345983 -617.181218 -626.490299 -635.780439 -645.041933 -653.166439 -657.742627 -655.907370 -644.542196 -619.671378 -582.011695 -514.223532 -452.797051 -379.067208 -369.451237 -409.429301 -513.764887 -605.858090 -672.695335 -747.222196 -855.226919 -1016.921067 -1162.852659 -1381.812583 -1489.303921 -1519.103321 -1578.076388 -1762.069904 -1951.181639 -2085.226722 -2267.814606 -2470.670718 -2511.746042 -2124.306194 -1276.123938 425.611327 2128.449214 3671.463600 5244.484169 6829.665144 8102.207518 9217.679373 10176.120565 11258.649782 12253.584034 13334.380908 14816.068575 16133.080608 17630.159345 19192.492324 20685.300423 22059.009560 23059.023411 23594.906476 23594.962109 23259.907251 22841.465820 -2.782537 -3.161979 -4.078106 -5.493569 -7.143740 -9.038583 -11.219975 -13.738723 -16.649843 -20.012094 -23.887719 -28.342093 -33.443188 -39.260853 -45.865895 -53.328934 -61.719073 -71.102352 -81.540039 -93.086780 -105.788654 -119.681191 -134.787426 -151.116047 -168.659726 -187.393698 -207.274624 -228.239801 -250.206673 -273.072628 -296.714969 -320.990934 -345.737615 -370.771666 -395.888776 -420.863098 -445.447143 -469.373098 -492.357023 -514.107870 -534.343482 -552.815397 -569.343235 -583.857559 -596.446799 -607.397099 -617.199151 -626.472824 -635.742929 -645.022973 -653.270796 -658.012116 -655.865288 -642.978499 -615.512115 -572.533148 -509.672535 -440.528108 -395.759763 -400.601846 -444.772766 -508.234213 -578.952861 -659.391250 -750.588153 -868.568435 -1017.757812 -1175.526254 -1339.273108 -1460.510518 -1547.956613 -1656.771377 -1791.082172 -1936.711461 -2104.326657 -2290.515506 -2415.028064 -2344.377597 -1875.213773 -895.467751 476.762699 2023.669500 3633.228356 5196.950640 6671.841553 7921.163433 9018.539309 10009.529612 11032.577491 12087.899032 13217.936110 14564.593843 15882.807022 17360.102949 18900.875770 20337.390751 21632.381128 22621.746052 23131.203028 23129.335544 22804.629267 22331.213834 21884.133168 -2.675668 -2.819133 -3.306727 -4.262539 -5.572280 -7.178264 -9.059025 -11.237623 -13.757301 -16.670624 -20.035573 -23.914146 -28.371619 -33.475910 -39.296823 -45.905107 -53.371325 -61.764506 -71.150613 -81.590830 -93.139714 -105.843252 -119.736886 -134.843565 -151.171899 -168.714496 -187.446536 -207.324646 -228.286097 -250.248325 -273.108716 -296.744573 -321.013131 -345.751467 -370.776209 -395.883013 -420.846020 -445.417790 -469.330685 -492.301157 -514.038875 -534.262805 -552.726055 -569.250200 -583.767932 -596.369492 -607.341134 -617.169752 -626.462945 -635.722784 -644.932852 -653.042661 -657.604083 -654.963648 -641.028532 -612.364702 -567.935788 -510.818912 -453.462310 -417.225019 -414.976242 -445.875071 -499.329143 -569.537583 -653.730928 -752.794440 -873.514537 -1015.784851 -1166.584814 -1311.479100 -1435.421896 -1541.891750 -1652.504898 -1779.213256 -1930.341448 -2108.270872 -2283.546538 -2371.660220 -2239.226327 -1743.430288 -812.135141 485.827541 2006.271731 3598.969478 5143.938113 6563.723375 7814.100655 8914.300976 9928.754682 10933.886904 11987.196204 13141.781194 14422.658237 15797.701152 17267.604936 18769.232937 20190.562921 21426.960508 22341.318992 22815.766744 22848.322915 22549.333562 22068.478113 21629.378839 21418.996870 16038.570822 6756.345235 12823.287058 10750.337145 11146.899802 9633.643756 13984.264261 12673.687356 14673.622892 13131.919490 15798.913202 13306.800030 13692.753383 18768.184194 19757.711936 20700.532492 20876.308214 23808.976685 24271.198728 23542.271280 11847.671233 7742.913652 10062.872947 13577.629470 13641.554130 13378.457082 10484.773335 13082.959744 12173.889995 17869.119076 13860.409116 17482.535549 21631.747753 17305.213091 16887.418707 23588.043462 23367.111068 22079.186371 24227.984847 24951.231225 18082.008809 12151.197327 10106.738890 11308.805336 12597.996860 15346.254832 13142.151248 14364.401051 16102.569285 15699.559463 15689.852364 16583.682503 12794.574726 22315.304468 23056.241342 24702.889304 23423.315042 24644.673847 24194.580689 25121.938844 12741.022099 17869.301316 107438.381942 15688.491336 21290.190626 12790.051241 14287.714953 14922.595278 14701.686746 22726.836291 23989.828454 24394.178795 16965.587559 19490.680751 21570.586842 23422.298194 19594.405882 24630.798087 23871.191137 25271.614207 15643.291173 13753.979087 96787.922669 18671.601483 14586.204483 28618.208411 63441.977551 105149.398401 16270.177204 16485.559326 22343.798229 13439.880773 39140.932324 18958.088174 15033.796152 24362.464834 21802.130555 12986.067433 25106.165251 24671.251688 30750.192954 21731.240741 12753.135331 15180.592932 60859.302655 26693.011757 11005.597695 15382.994145 19439.622019 18802.360465 25051.985709 29812.452416 22741.440445 13808.081571 16466.108238 22767.681145 24421.029589 19959.192031 23553.552738 22339.409212 13425.947876 19215.481223 11022.890764 14711.277433 20424.036137 69765.932364 16804.232406 16491.836413 18395.205192 48791.782809 61302.946034 13016.181038 12875.297980 23301.652398 63354.997617 34986.899346 24089.579771 24203.843484 23802.760390 24162.383151 102355.918413 15203.663669 87136.794197 10859.436279 13317.694522 102179.304582 22216.260587 16370.326754 15768.179990 61505.334474 15417.916048 14531.622172 22360.061822 67741.318328 54580.560574 17831.542259 52793.896901 18693.776689 32761.197229 22328.825449 10938.369994 15472.034440 13860.881885 14107.287043 63894.975352 16759.760664 14435.472517 16818.574381 19864.923781 13906.112168 81975.864987 21212.346921 24802.842258 33610.019761 22991.487825 67263.952491 28417.237885 20429.750738 24625.981850 23484.260847 26711.723226 14123.431715 7743.666472 19434.903415 17272.148785 62970.766819 80254.333259 63159.423070 12093.139768 11504.781607 69712.704025 69491.711245 19730.590839 68708.001706 12060.339872 57666.404457 83881.480400 27235.517214 16339.774915 58846.448095 58574.648432 86133.536558 70979.959118 12028.349617 13724.466198 11725.202424 38824.837283 11989.349239 107345.520857 68787.281331 19003.993767 12145.926474 18170.897634 18573.984573 14957.866740 74368.790789 25743.911299 17207.065494 38343.514350 32153.154510 10629.228015 75611.356582 67812.326007 15420.073347 62610.838310 11858.062282 11200.257242 13668.502757 17377.027800 15226.897313 12414.069901 65907.641698 14208.100015 12622.576161 15825.531352 18837.424377 62196.096032 18833.344276 15635.948680 70603.395313 78224.383470 14616.911740 12064.543058 14038.310479 15108.202553 108002.559995 13124.798617 11686.509999 14889.691490 12761.714627 11509.070256 14420.996901 14101.723704 12628.849520 18636.579822 20250.897839 70388.195620 14481.329097 17701.959774 20640.790142 12722.310284 47361.654026 10841.862453 11903.710126 25891.368232 13792.111869 11237.654693 15425.781639 11654.761734 11007.906400 34418.279790 12183.606924 19740.289995 19737.611082 11314.136058 19957.196286 19731.409709 19137.422025 37073.973938 33358.863566 10685.391844 8416.686301 8345.540421 13053.723246 10097.097549 10285.760163 15954.610051 13475.979949 14164.027707 10821.782293 16336.867854 12917.446772 14584.989841 16889.196929 12654.158698 19781.340566 15052.642974 18451.611144 15002.200343 18446.005304 10721.669044 12183.817513 21898.701926 81130.158801 12681.029932 12082.728440 13064.009929 12056.649359 14211.857577 10519.078489 12641.694567 11599.402991 70623.070750 12888.247932 17139.844633 15896.757615 19622.243022 53915.351531 15958.286924 17299.826643 11179.522045 17582.815439 11651.011978 13407.069724 11371.284340 72970.135003 12547.879478 10612.938202 13331.823353 14269.108070 14941.649219 14197.361760 15755.951717 16262.183139 18972.877455 18604.744975 18347.253457 53966.131240 80477.402799 101801.651705 9711.421633 11477.440435 7847.350765 9190.758868 10034.591555 15086.985596 11741.164649 13648.218193 16021.546457 11555.240693 11679.616872 16619.882970 17706.948549 15566.344525 11824.441271 17161.701966 17109.575270 13570.874003 18554.643472 86988.761540 10810.399654 11135.346581 10979.660642 10358.398859 11296.729402 14623.354443 16090.181866 14024.347367 12789.407964 10046.052377 12737.180574 13338.840736 13404.103927 13803.593116 10628.550637 20773.865262 13961.742836 18446.299843 19558.079125 17681.540542 10681.315953 8226.773474 9222.823558 10537.398363 11958.183118 8379.537107 12196.302910 8798.907574 9929.868972 11111.892668 13108.895579 12417.464387 14863.159856 13441.308882 15457.635407 14646.186635 12786.141429 15538.165234 105751.310368 32203.220212 8166.361578 10116.886034 8879.377293 10560.786318 9535.022238 9395.262826 13027.729859 11607.292978 9632.250987 9057.383879 13610.561949 11181.975745 12010.348428 13968.395203 14276.611653 16333.987161 17122.435185 15692.688567 12324.321891 13707.531493 10034.617151 8600.227079 11161.237335 6219.081404 7853.066119 8713.503747 9834.485273 9681.522682 10665.329898 9205.148672 10565.506531 11232.985470 9992.376505 14826.879524 11311.026531 15714.690488 16375.291621 14000.979427 18355.404628 26799.977128 9566.797950 5943.299058 6305.213492 7254.116698 8478.483436 6823.853880 7428.612636 9209.494452 6449.483065 7933.882505 11744.230416 10911.032490 10717.357856 14095.655379 12131.941106 15484.218612 14661.308739 17361.301933 17757.315552 16461.220008 8654.639272 6865.245826 8915.742568 5221.381132 6043.971801 5787.488701 8901.076116 10038.494049 10609.846063 9047.011942 8528.282322 8022.292690 15370.724383 9705.863577 13571.494347 13418.617698 19861.343028 14645.919503 16622.964041 16929.840904 7516.732216 7859.571716 6942.584228 6839.753795 8442.473206 8312.814243 10438.605007 7736.981481 10716.845360 8864.006920 11244.978776 11391.765853 12066.838533 16568.863756 12998.106468 15509.009700 15602.553808 15886.142663 20010.504632 20683.502573 6831.405170 11278.727267 10308.979368 8117.382594 9822.109407 9128.718907 8060.058992 11938.505826 7350.695113 10943.651453 10794.858829 12033.492791 14634.246370 13890.385668 13626.759563 12040.002093 13343.464702 13358.874783 17427.967745 16376.384003 11756.890071 9689.736853 6454.974527 7586.788678 4880.674385 10607.027397 9307.498642 8812.852926 11716.741984 12350.463713 12577.878952 12962.557064 11948.020660 13954.018332 15513.061762 18501.228622 15370.524652 16289.483743 20769.921662 19020.718884 6388.534266 5219.945110 7241.670121 5595.047046 5218.524479 5884.350127 8607.815112 10869.282621 10344.947527 13977.407651 12158.917087 12572.214145 9299.976420 11776.616460 12694.542374 16278.977307 17241.651367 14150.106173 20830.209278 14965.524587 4463.642088 6069.927418 3023.471673 8386.114061 8675.101016 8866.618106 8739.020710 7368.823318 7602.292861 12415.189503 8169.273094 9652.319578 15442.198948 15212.638126 14360.968080 14685.998323 13547.890773 15657.082862 14343.314950 15439.371505 1335.961103 5222.336867 4213.057615 5771.226800 6114.065260 7433.495516 6343.488776 7546.575155 8247.689304 10541.450219 7671.204929 13565.705548 9300.352849 15547.471554 15821.440843 14539.503043 13480.027935 15352.974078 12981.061815 21091.194735 2393.146230 2753.039013 1567.758272 4350.454934 4007.075410 6391.650389 6269.983671 6690.238368 6704.849422 10251.567120 9563.323813 8554.740577 10704.934822 10818.442889 13549.820955 16146.022738 14094.115698 13954.025246 21256.222252 15455.916575 1896.959201 3229.098547 1272.437742 2819.079129 4600.199530 3562.120035 7907.654980 4777.004228 6876.525879 7305.881717 7246.266358 6608.350412 8238.925454 12297.413145 11103.420637 15062.586458 13875.759499 14714.156727 14068.930634 17100.877484 2129.305188 2048.458077 1848.783504 1845.458915 2272.498634 6311.229383 4906.739916 5358.176987 7121.080157 8152.303078 7549.647006 8777.933644 14737.593521 9883.204466 11546.467139 15729.829735 13222.317391 12888.000989 18626.588619 12848.609324 1501.460674 1985.892953 1667.078817 1375.108898 2950.661470 5544.517578 5019.930583 6704.516943 7311.369151 6850.824158 7471.176269 8918.786331 7792.965719 9281.945422 12458.140432 11531.488222 12040.071151 15562.495317 20356.712112 20513.998136 2639.127330 1258.891749 1970.016953 2026.552287 2961.887272 4929.707745 4141.786291 4382.387442 8171.628321 8282.519942 10019.116499 10725.785170 7624.870842 12308.558092 13593.036047 16930.286768 16106.092829 16032.400894 12052.944591 11071.432817 2226.278172 2740.334890 1316.576822 2993.359609 3693.770242 3888.806580 4567.387067 4420.534517 4881.231094 6353.299113 8477.559636 9463.26897