<VTKFile type="PolyData">
<PolyData>
<Piece NumberOfPoints="6715" NumberOfVerts="6715" NumberOfLines="0" NumberOfStrips="0" NumberOfPolys="0">
<PointData>
<DataArray type="Float64" Name="Pressure" format="ascii">
 5082.730990 5877.258536 7281.638679 8632.999933 9594.554938 10038.125140 10511.943909 10733.494345 10018.870903 8719.807816 7371.364953 5536.845106 2868.074719 -136.560124 2508.172896 11368.223283 19178.520938 22883.296059 19219.613879 1253.938687 -14747.332138 -15647.593476 -5007.888051 5891.848012 12389.167472 13139.989919 12554.559636 12008.913128 11289.961917 11302.769694 12245.121023 12890.857701 12649.158585 11354.869773 10978.508762 11879.174768 13410.646277 14566.501800 14858.601317 14783.722227 14495.421511 14173.930607 13867.345890 13564.181134 13460.891286 13920.825750 14482.263958 14634.032741 14243.609664 13819.983731 14049.779771 14705.533081 15356.626011 15614.539542 15334.608229 15013.276148 15109.656804 15610.259276 16078.342780 16141.490897 16029.041654 16191.850979 16462.904661 16585.383607 16697.454969 17097.139338 17965.114801 18954.989931 19332.652344 18876.321864 18068.034518 17777.951950 18172.959629 18450.775490 18368.692642 18447.185780 19040.212353 19777.486417 19970.799689 19829.447946 19697.169798 19739.185487 19914.295553 20236.363357 20565.656643 20749.325132 20747.722383 20817.662941 20948.106412 20836.335199 20590.498013 20537.891265 20839.843159 21186.020783 21318.742084 21292.339902 21510.526665 21977.185914 22169.751150 21681.991919 21106.436742 21108.165080 21566.357187 22129.600031 22288.371690 22127.840579 22101.469162 22422.940036 22441.086513 21631.913155 21170.560924 21504.753371 22096.526676 22378.425882 22301.503225 22011.478638 21319.155087 20542.088266 19979.380634 20098.959075 20913.808107 21790.109894 21925.505402 21450.426618 21146.722807 21124.064345 20964.972660 20533.589059 20143.817381 20218.321369 20556.820717 20585.603232 20258.890528 19778.871822 19520.892349 19405.200323 19193.453226 18834.396459 18478.728551 18485.583836 18706.469544 18879.646819 18893.496144 18966.158634 19428.127530 19760.231846 19702.191956 19363.520827 18922.390227 18541.748904 18277.601738 18157.586368 18092.065014 17975.767110 17889.844109 17947.033689 18037.550927 18038.764124 17878.926705 17649.401341 17534.097577 17554.369234 17610.952058 17625.400988 17631.494805 17748.507495 17886.871880 17993.445831 18112.382967 18411.250567 18549.168856 18532.674762 18582.009045 18416.539691 18202.826611 18024.369526 18098.773657 18210.448947 18168.953187 18075.559285 17963.818360 17956.364343 18172.816914 18241.132562 18082.173142 17893.726919 17793.684760 17799.684723 17902.146522 18171.000788 18486.201470 18671.464931 18668.988186 18523.476813 18408.327672 18413.240555 18512.273743 18391.738742 17895.705650 16977.957919 16128.549223 4256.980768 4671.143024 5340.608666 6352.710922 7479.754982 8385.659745 8960.914361 9437.816377 9675.934642 9379.394981 8509.411451 7311.892014 5865.379478 4013.439428 2262.980996 3309.907291 6925.970506 10334.483535 10867.416633 5609.476004 -2834.267385 -8150.613930 -5139.140974 2270.007198 7877.385015 10887.514235 12073.225209 12821.834027 13050.123574 12657.625359 12401.904914 12619.849400 12788.311502 12492.377738 11909.335784 11790.181081 12413.783599 13554.843427 14495.662218 14812.990745 14594.904997 14129.885221 13667.632412 13265.657886 12963.531337 12953.207081 13435.049944 14042.982446 14290.850053 14071.726706 13770.974206 13871.644523 14282.003741 14686.389178 14888.487197 14815.799315 14697.140271 14775.476409 15083.974871 15391.219563 15461.797161 15441.914170 15631.926353 15971.071553 16278.797027 16574.051097 17117.680864 17930.571445 18735.538342 19045.248426 18710.153994 18159.411607 17926.259387 18087.462975 18299.892384 18371.929369 18546.155754 19054.883795 19633.433141 19846.115513 19771.524972 19714.179044 19768.646561 19867.478151 20015.069799 20188.473144 20362.074584 20496.714353 20594.263336 20567.944399 20373.184134 20188.641019 20164.906612 20373.006352 20698.405651 20903.633956 20975.679005 21150.222134 21428.151791 21452.752536 21057.905059 20691.376209 20729.120800 21077.737966 21475.198482 21647.657776 21589.205486 21564.809943 21695.103654 21736.498072 21474.068590 21297.506218 21432.027164 21630.798173 21713.827726 21694.912398 21548.848445 21183.137632 20645.912370 20214.527714 20261.074920 20778.254714 21308.215909 21383.585857 21118.447821 20931.051387 20911.090288 20762.689333 20329.370682 19966.968666 20005.062746 20280.235778 20329.161748 20090.366208 19767.513183 19511.510668 19322.162387 19132.746278 18863.411793 18571.326369 18491.136870 18638.052740 18818.017355 18923.794024 19121.240713 19487.286167 19726.977142 19674.058129 19396.430057 19041.984118 18703.250674 18448.986376 18331.065252 18256.729362 18164.541168 18089.193644 18062.465205 18071.735777 18038.768524 17904.091915 17731.335114 17643.284395 17656.610340 17689.766233 17692.507166 17728.143334 17824.268064 17911.514010 17995.348953 18104.415593 18248.532941 18432.231396 18528.324794 18479.086889 18352.172880 18194.080465 18050.440585 18030.624593 18059.559205 18048.615317 17995.773110 17927.323937 17939.478386 18072.173376 18120.712497 17979.130439 17764.872322 17608.408567 17553.073528 17621.408101 17830.906970 18105.222041 18282.761528 18304.052934 18185.195824 18004.064940 17887.257605 17830.784364 17593.753668 17074.350550 16323.235857 15609.712282 15126.411247 3920.829018 4084.518037 4481.304552 5113.550083 5936.106168 6828.266356 7596.384592 8188.603011 8698.327923 9033.563268 8895.746653 8156.924061 7060.127283 5902.177425 4781.513881 3886.882630 3950.234985 5280.749001 6703.884031 6941.606722 5265.979895 2902.424511 2330.933032 4462.437563 7227.742597 8982.936958 10250.579676 11604.578354 12849.745939 13414.507807 13241.573237 12906.561797 12772.755966 12658.475295 12363.114394 12074.458651 12095.140330 12580.014874 13413.745236 14169.647234 14451.749349 14241.101437 13801.325739 13358.392198 12986.859099 12744.364549 12781.718626 13191.901407 13738.955470 14033.903143 13938.813083 13739.229783 13756.217856 14004.829737 14324.166276 14545.602636 14614.761544 14615.794854 14702.063372 14905.220099 15106.486863 15180.591632 15229.502816 15429.255226 15777.335396 16164.495740 16585.990416 17143.267852 17813.569725 18438.692610 18722.119651 18562.329855 18223.342537 18021.178767 18041.956818 18190.697678 18345.090501 18567.190188 18956.743471 19387.336307 19625.441672 19668.121919 19700.493123 19794.134708 19890.275678 19948.431242 20015.957098 20134.228988 20272.509716 20344.410957 20267.234697 20088.263335 19945.997037 19960.823148 20160.624998 20443.983942 20654.361408 20764.782697 20889.057017 21021.979769 20959.064591 20694.958959 20496.381925 20556.824748 20822.917542 21105.646319 21252.930666 21265.213804 21267.111623 21345.173657 21409.004021 21383.150704 21359.521209 21391.887294 21398.682893 21370.153666 21349.764228 21270.837216 21025.046215 20633.148689 20339.593779 20376.324628 20691.154100 20976.366773 21011.528766 20870.814851 20754.992054 20715.245189 20592.491565 20240.451160 19939.857750 19933.447473 20107.243913 20130.018697 19944.628837 19692.274867 19469.202819 19282.905904 19096.031257 18859.214563 18610.509320 18500.711401 18582.696998 18760.564123 18946.374236 19186.095761 19474.005741 19642.083795 19578.873082 19341.907981 19040.992883 18749.827311 18523.982722 18395.760329 18330.477725 18267.548315 18193.933962 18136.310663 18101.418656 18044.030148 17929.039025 17803.239398 17742.722961 17747.763307 17766.271538 17768.471345 17785.931762 17837.946303 17893.727663 17953.470497 18065.746451 18199.871831 18314.548638 18373.134869 18356.348640 18256.998789 18089.693194 17951.318586 17901.694761 17906.816855 17909.541915 17884.525614 17851.053669 17866.087286 17939.683866 17965.214090 17855.115895 17669.195352 17505.371293 17429.763512 17476.935606 17651.805317 17887.310763 18058.496665 18094.211227 18013.188109 17870.651274 17711.723111 17526.218365 17205.317277 16679.586075 16021.283733 15376.311872 14928.001482 14745.544500 16128.549223 16871.651181 17488.798527 17418.648102 16859.469306 16033.390050 15156.546502 14282.676915 13492.045566 12758.898801 11963.756823 10974.969440 9965.986192 9009.708644 8023.758060 7025.627816 6239.521632 5492.404109 4885.642524 4273.530003 3855.911636 3373.864780 2974.740751 2673.075669 2425.538486 2221.575222 2052.731982 1911.922767 1792.690780 1689.417143 1597.552291 1513.539816 1434.708238 1359.156518 1285.632793 1213.411208 1142.172902 1071.896068 1002.758896 935.058028 869.143609 805.370514 744.064207 685.499110 629.887064 577.373573 528.039665 481.907525 438.948380 399.091420 362.232867 328.244563 296.981667 268.289263 242.007784 217.977296 196.040720 176.046143 157.848347 141.309729 126.300741 112.699984 100.394056 89.277251 79.251161 70.224251 62.111413 54.833549 48.317179 42.494076 37.300949 32.679144 28.574383 24.936517 21.719306 18.880201 16.380145 14.183380 12.257249 10.572015 9.100676 7.818783 6.704259 5.737234 4.899868 4.176191 3.551945 3.014434 2.552379 2.155787 1.815816 1.524661 1.275441 1.062093 0.879267 0.722220 0.586646 0.468350 0.361898 0.262517 0.211820 15126.411247 15558.001764 16112.751834 16476.407112 16402.304518 15938.932971 15262.594608 14498.959532 13714.920297 12967.154186 12226.716953 11407.105315 10508.547074 9608.854298 8718.987389 7830.488583 6961.911357 6180.441298 5463.745735 4817.466221 4241.975450 3760.215285 3328.338049 2966.613762 2669.771884 2423.549451 2219.990921 2051.433915 1910.946878 1791.979205 1688.913278 1597.209096 1513.316719 1434.570210 1359.074091 1285.582118 1213.373858 1142.135468 1071.849567 1002.698060 934.980538 869.049359 805.260937 743.941710 685.366611 629.747643 577.230217 527.895092 481.764091 438.808025 398.955668 362.102846 328.121046 296.865125 268.179916 241.905657 217.882266 195.952558 175.964549 157.772980 141.240227 126.236739 112.641120 100.339985 89.227643 79.205708 70.182662 62.073417 54.798893 48.285624 42.465399 37.274941 32.655606 28.553128 24.917368 21.702093 18.864767 16.366340 14.171062 12.246285 10.562281 9.092056 7.811168 6.697549 5.731336 4.894697 4.171669 3.548001 3.011003 2.549404 2.153213 1.813598 1.522757 1.273815 1.060719 0.878137 0.721378 0.586309 0.469308 0.367488 0.280081 0.223469 0.200062 14745.544500 14904.621139 15264.068549 15693.015844 15946.824702 15872.844461 15479.230243 14885.070123 14192.642283 13466.073250 12729.378241 11968.631211 11158.336278 10300.529542 9427.949533 8565.129860 7718.063980 6901.508876 6135.782203 5431.024882 4789.996575 4221.143168 3732.602168 3316.863324 2966.262132 2671.110453 2425.346996 2221.548918 2052.653721 1911.888856 1792.680771 1689.414505 1597.551588 1513.539575 1434.708149 1359.156489 1285.632785 1213.411206 1142.172901 1071.896068 1002.758896 935.058028 869.143609 805.370514 744.064207 685.499110 629.887064 577.373573 528.039665 481.907525 438.948380 399.091420 362.232867 328.244563 296.981667 268.289263 242.007784 217.977296 196.040720 176.046143 157.848347 141.309729 126.300741 112.699984 100.394056 89.277251 79.251161 70.224251 62.111413 54.833549 48.317179 42.494076 37.300949 32.679144 28.574383 24.936517 21.719306 18.880201 16.380145 14.183380 12.257249 10.572015 9.100676 7.818783 6.704259 5.737234 4.899868 4.176191 3.551945 3.014434 2.552380 2.155787 1.815816 1.524663 1.275449 1.062119 0.879354 0.722506 0.587592 0.471456 0.372387 0.291577 0.232579 0.202508 0.193685 0.211820 0.185832 0.146906 0.118506 0.096516 0.078752 0.064217 0.052285 0.042489 0.034459 0.027888 0.022523 0.018151 0.014596 0.011712 0.009377 0.007491 0.005971 0.004749 0.003769 0.002984 0.002357 0.001858 0.001461 0.001146 0.000897 0.000700 0.000545 0.000424 0.000329 0.000254 0.000196 0.000151 0.000116 0.000089 0.000068 0.000052 0.000039 0.000030 0.000022 0.000017 0.000013 0.000010 0.000007 0.000005 0.000004 0.000003 0.000002 0.000002 0.000001 0.000001 0.000001 0.000000 0.000000 0.000000 0.000000 0.000000 0.000000 0.000000 0.000000 0.000000 0.000000 0.000000 0.000000 0.000000 0.000000 0.000000 0.000000 0.000000 0.000000 0.000000 0.000000 0.000000 0.000000 0.000000 0.000000 0.000000 0.000000 0.000000 0.000000 0.000000 0.000000 -0.000000 0.000000 0.000000 0.000000 0.000000 0.000000 -0.000000 0.000000 -0.000000 -0.000000 -0.000000 -0.000000 -0.000000 -0.000000 -0.000000 -0.000000 -0.000000 -0.000000 -0.000000 -0.000000 -0.000000 -0.000000 -0.000000 -0.000000 -0.000000 -0.000000 -0.000000 -0.000000 -0.000000 -0.000001 -0.000001 -0.000001 -0.000001 -0.000002 -0.000002 -0.000003 -0.000004 -0.000006 -0.000007 -0.000010 -0.000013 -0.000017 -0.000022 -0.000029 -0.000037 -0.000048 -0.000063 -0.000081 -0.000104 -0.000134 -0.000173 -0.000221 -0.000283 -0.000362 -0.000461 -0.000586 -0.000744 -0.000942 -0.001191 -0.001502 -0.001890 -0.002373 -0.002974 -0.003719 -0.004641 -0.005779 -0.007181 -0.008905 -0.011019 -0.013606 -0.016765 -0.020614 -0.025294 -0.030971 -0.037842 -0.046140 -0.056138 -0.068159 -0.082580 -0.099841 -0.120454 -0.145016 -0.174218 -0.208858 -0.249856 -0.298268 -0.355308 -0.422361 -0.501003 -0.593029 -0.700472 -0.825626 -0.971077 -1.139730 -1.334835 -1.560020 -1.819322 -2.117217 -2.458655 -2.849087 -3.294500 -3.801447 -4.377072 -5.029137 -5.766046 -6.596864 -7.531327 -8.579856 -9.753558 -11.064236 -12.524405 -14.147397 -15.947721 -17.942330 -20.154915 -22.630091 -25.495085 -28.973418 -31.118289 0.200062 0.192571 0.171151 0.142393 0.117130 0.096002 0.078509 0.064070 0.052179 0.042406 0.034392 0.027833 0.022478 0.018114 0.014566 0.011687 0.009357 0.007475 0.005958 0.004738 0.003760 0.002977 0.002351 0.001853 0.001457 0.001143 0.000894 0.000698 0.000544 0.000423 0.000328 0.000253 0.000195 0.000150 0.000115 0.000088 0.000067 0.000051 0.000039 0.000030 0.000022 0.000017 0.000013 0.000009 0.000007 0.000005 0.000004 0.000003 0.000002 0.000002 0.000001 0.000001 0.000001 0.000000 0.000000 0.000000 0.000000 0.000000 0.000000 0.000000 0.000000 0.000000 0.000000 0.000000 0.000000 0.000000 0.000000 0.000000 0.000000 0.000000 0.000000 0.000000 0.000000 0.000000 0.000000 0.000000 0.000000 0.000000 0.000000 -0.000000 -0.000000 0.000000 0.000000 -0.000000 -0.000000 0.000000 0.000000 0.000000 -0.000000 -0.000000 -0.000000 -0.000000 -0.000000 -0.000000 -0.000000 -0.000000 -0.000000 -0.000000 -0.000000 -0.000000 -0.000000 -0.000000 -0.000000 -0.000000 -0.000000 -0.000000 -0.000000 -0.000000 -0.000000 -0.000000 -0.000000 -0.000000 -0.000001 -0.000001 -0.000001 -0.000001 -0.000002 -0.000002 -0.000003 -0.000004 -0.000006 -0.000007 -0.000010 -0.000013 -0.000017 -0.000022 -0.000028 -0.000037 -0.000048 -0.000062 -0.000081 -0.000104 -0.000134 -0.000172 -0.000221 -0.000283 -0.000361 -0.000460 -0.000585 -0.000742 -0.000940 -0.001188 -0.001498 -0.001886 -0.002368 -0.002968 -0.003711 -0.004631 -0.005767 -0.007167 -0.008887 -0.010997 -0.013580 -0.016734 -0.020577 -0.025249 -0.030917 -0.037777 -0.046062 -0.056046 -0.068050 -0.082451 -0.099688 -0.120275 -0.144806 -0.173971 -0.208569 -0.249519 -0.297876 -0.354853 -0.421834 -0.500395 -0.592328 -0.699666 -0.824703 -0.970022 -1.138527 -1.333466 -1.558467 -1.817565 -2.115235 -2.456424 -2.846583 -3.291698 -3.798319 -4.373589 -5.025271 -5.761767 -6.592139 -7.526126 -8.574143 -9.747292 -11.057352 -12.516762 -14.138600 -15.936548 -17.924820 -20.117947 -22.529440 -25.158060 -27.909733 -29.889395 -30.643557 0.193685 0.191875 0.182572 0.162979 0.139390 0.116253 0.095832 0.078545 0.064154 0.052266 0.042483 0.034457 0.027888 0.022523 0.018151 0.014596 0.011712 0.009377 0.007491 0.005971 0.004749 0.003769 0.002984 0.002357 0.001858 0.001461 0.001146 0.000897 0.000700 0.000545 0.000424 0.000329 0.000254 0.000196 0.000151 0.000116 0.000089 0.000068 0.000052 0.000039 0.000030 0.000022 0.000017 0.000013 0.000010 0.000007 0.000005 0.000004 0.000003 0.000002 0.000002 0.000001 0.000001 0.000001 0.000000 0.000000 0.000000 0.000000 0.000000 0.000000 0.000000 0.000000 0.000000 0.000000 0.000000 0.000000 0.000000 0.000000 0.000000 0.000000 0.000000 0.000000 0.000000 0.000000 0.000000 0.000000 0.000000 0.000000 0.000000 0.000000 0.000000 -0.000000 0.000000 0.000000 -0.000000 0.000000 0.000000 0.000000 0.000000 0.000000 -0.000000 -0.000000 -0.000000 -0.000000 -0.000000 -0.000000 -0.000000 -0.000000 -0.000000 -0.000000 -0.000000 -0.000000 -0.000000 -0.000000 -0.000000 -0.000000 -0.000000 -0.000000 -0.000000 -0.000000 -0.000000 -0.000000 -0.000000 -0.000001 -0.000001 -0.000001 -0.000001 -0.000002 -0.000002 -0.000003 -0.000004 -0.000006 -0.000007 -0.000010 -0.000013 -0.000017 -0.000022 -0.000029 -0.000037 -0.000048 -0.000063 -0.000081 -0.000104 -0.000134 -0.000173 -0.000221 -0.000283 -0.000362 -0.000461 -0.000586 -0.000744 -0.000942 -0.001191 -0.001502 -0.001890 -0.002373 -0.002974 -0.003719 -0.004641 -0.005779 -0.007181 -0.008905 -0.011019 -0.013606 -0.016765 -0.020614 -0.025294 -0.030971 -0.037842 -0.046140 -0.056138 -0.068159 -0.082580 -0.099841 -0.120454 -0.145016 -0.174218 -0.208858 -0.249856 -0.298268 -0.355308 -0.422361 -0.501003 -0.593029 -0.700472 -0.825626 -0.971077 -1.139730 -1.334835 -1.560020 -1.819322 -2.117217 -2.458655 -2.849087 -3.294500 -3.801447 -4.377072 -5.029137 -5.766046 -6.596863 -7.531323 -8.579842 -9.753514 -11.064093 -12.523939 -14.145876 -15.942760 -17.926141 -20.102073 -22.458046 -24.925517 -27.293463 -29.202284 -30.152395 -30.382312 -31.118289 -34.231923 -40.028473 -45.791787 -51.689525 -57.874033 -64.392653 -71.267076 -78.509900 -86.129586 -94.131756 -102.519417 -111.292863 -120.449494 -129.983625 -139.886296 -150.145121 -160.744151 -171.663772 -182.880639 -194.367640 -206.093911 -218.024882 -230.122373 -242.344735 -254.647039 -266.981288 -279.296677 -291.539838 -303.655096 -315.584667 -327.268815 -338.645921 -349.652507 -360.223286 -370.291436 -379.789460 -388.651219 -396.815765 -404.233336 -410.873210 -416.733048 -421.850962 -426.322227 -430.321966 -434.127477 -438.315292 -443.942762 -451.371641 -465.857809 -465.679044 -467.855368 -443.243496 -420.752041 -496.020572 -649.201225 -718.591239 -620.623111 -480.403427 -491.089345 -638.878022 -752.545886 -849.340253 -1057.548341 -1394.076920 -2066.631774 -2410.866925 -1860.727857 -699.005990 173.778340 275.854367 -28.400153 -210.402933 -326.944918 -543.956431 -793.016583 -1026.488313 -1140.678345 -1084.348538 -526.446590 97.669535 552.559068 715.803662 232.766461 -127.934148 -93.853785 587.281384 1418.902790 1744.877933 1522.472090 1246.555036 1275.472229 1862.037309 2912.248871 4005.399051 4945.924603 5612.157255 6124.902964 6251.018087 5680.598223 5082.730990 -30.643557 -32.039278 -35.405462 -40.410837 -45.884359 -51.706262 -57.867762 -64.379114 -71.251042 -78.492888 -86.112130 -94.114100 -102.501722 -111.275273 -120.432155 -129.966685 -139.869914 -150.129459 -160.729377 -171.650057 -182.868155 -194.356560 -206.084405 -218.017115 -230.116505 -242.340918 -254.645413 -266.981984 -279.299811 -291.545518 -303.663417 -315.595721 -327.282687 -338.662696 -349.672271 -360.246117 -370.317376 -379.818466 -388.683078 -396.849988 -404.269062 -410.909139 -416.767303 -421.880861 -426.344177 -430.330401 -434.110868 -438.169253 -443.542567 -450.989879 -462.717735 -474.428039 -471.501582 -461.332445 -463.783301 -515.813285 -622.781896 -701.174742 -689.598126 -640.502074 -658.966012 -747.444034 -842.630877 -974.271460 -1212.508981 -1578.703243 -2026.221168 -2299.841769 -2060.615523 -1252.612053 -448.319105 -229.888065 -466.459118 -628.231473 -634.189145 -720.762137 -954.396011 -1175.250428 -1315.869415 -1344.506799 -1122.084471 -701.779540 -301.261775 -136.856923 -186.353208 -252.033032 -130.514679 404.044070 1072.147633 1352.752699 1289.110748 1148.639145 1179.053513 1572.301539 2365.722371 3378.512918 4333.539446 5086.696797 5617.013257 5653.513667 5175.092235 4645.141252 4256.980768 -30.382312 -30.898928 -32.684784 -36.146742 -40.711864 -45.996827 -51.752577 -57.893349 -64.398574 -71.268891 -78.510456 -86.129757 -94.131809 -102.519433 -111.292867 -120.449496 -129.983625 -139.886296 -150.145121 -160.744151 -171.663772 -182.880639 -194.367640 -206.093911 -218.024882 -230.122373 -242.344735 -254.647039 -266.981288 -279.296677 -291.539838 -303.655096 -315.584667 -327.268815 -338.645921 -349.652507 -360.223286 -370.291436 -379.789460 -388.651220 -396.815768 -404.233337 -410.873156 -416.732758 -421.850233 -426.320944 -430.318545 -434.109758 -438.129430 -443.387802 -450.870244 -460.725103 -473.773078 -483.319771 -483.458583 -489.766689 -535.253062 -621.797877 -699.240372 -723.924549 -721.822585 -752.428030 -829.341018 -925.125583 -1053.532425 -1277.790602 -1616.950560 -1983.521550 -2199.085071 -2064.016259 -1513.805964 -903.888490 -686.062282 -814.457560 -878.544422 -841.564869 -909.189786 -1106.087360 -1303.557325 -1444.325656 -1491.385358 -1334.086473 -993.928466 -666.934144 -485.805471 -415.527221 -355.355696 -158.010448 302.516184 836.511463 1094.428225 1080.644874 993.943865 1062.101153 1428.512225 2140.583716 3040.408742 3917.982938 4630.115830 5069.523409 5108.376596 4828.749964 4402.546030 4062.966344 3920.829018 6722.215417 1384.349444 5720.832189 812.497765 1735.871178 286.007159 1162.340160 1321.058979 1066.789758 1664.164607 1267.062198 268.813773 4134.520273 3134.895431 4529.585527 1312.237043 4061.494105 6363.371570 7041.335350 6308.781307 961.493384 225.794099 1538.994666 5354.707391 1121.795071 4167.764804 313.937925 3646.298657 1180.038235 2701.112723 3276.395282 2119.893469 1577.932746 1159.226277 2545.624864 6030.527300 3840.445960 4724.074107 8098.371092 9371.195435 3823.449655 1475.643187 -174.524401 1025.584393 3807.954691 3906.244797 484.618028 1952.747785 4379.366262 2576.176876 2103.747210 1223.407365 3701.658970 4859.603278 4798.299859 8289.479699 7273.779512 5386.848673 7732.655555 5772.419105 -270.080889 5600.582626 -6496.562722 1788.410565 5874.651622 5141.339808 2487.466054 1156.433656 1554.996964 5009.027739 6516.404200 425.465200 2002.931237 3151.036425 5566.854056 6756.449577 8753.886646 7015.081344 8609.944742 9809.973049 2329.004743 2775.116429 -4519.377153 4524.251222 3385.627767 7146.291681 21701.933003 63114.469014 6546.875132 1458.972599 6884.421713 3548.985427 2349.220680 1544.422012 3811.268478 6523.170045 2934.382474 -10687.849504 8810.524378 10403.225853 2710.635859 8994.166146 820.339775 3313.527837 1036.707700 -13575.991594 9700.946309 -613.417909 2160.175477 8921.364808 304.369787 3599.907125 5396.423822 2243.828282 2763.175834 8540.775751 3898.327866 5090.031036 9902.125024 4067.394867 3031.425669 2597.149104 7384.007614 13015.042663 9593.145290 58368.072709 8981.592817 5358.721677 70366.969287 15123.875970 -9191.103043 3006.074185 7325.533834 10843.245047 2990.554462 43678.689217 7964.168041 7162.068273 6209.081342 10903.914735 15140.807120 2536.751667 24868.733953 7590.763267 7302.817093 1474.287777 70191.835638 12262.750234 10507.008567 2985.655140 3560.862447 2432.583275 5948.915428 2503.623708 2410.903052 7409.734527 585.761636 4292.304335 1396.918389 6950.794731 7780.532220 13036.298782 11218.709908 2676.094850 23782.557585 603.992534 9269.849047 12124.413228 4538.847447 -6800.695428 1220.975324 2850.028995 5420.115216 928.208366 7308.536658 -481.782796 9353.614155 5304.500149 7791.997223 10069.881290 -5421.838877 9559.957564 6325.457891 10199.117999 4788.537348 51111.088306 19596.573004 -878.376633 11405.928443 9830.263128 31994.882367 6019.971289 10504.596651 34456.928540 7404.937187 1983.890889 -4894.671534 1719.531063 8909.216079 2933.705567 40271.907899 2335.050884 2263.916770 7768.932758 7954.118279 7275.598053 -8821.658986 7573.930298 66934.412965 327.063543 8375.527668 8731.059723 7857.319549 11135.977265 7706.999395 15392.252919 8228.558760 10075.990400 -8807.895344 10155.187148 8387.901278 24162.541346 23142.392557 10092.847976 2295.827246 7336.855164 8213.678189 9509.218260 8767.101436 11404.380551 9994.418700 25994.467942 7796.110432 7522.691894 8513.039218 12931.222456 9371.731040 -255.021172 11833.578088 -5133.914286 63980.649511 10072.392675 7680.148469 4361.153712 -14275.700368 61765.718214 10230.339254 8610.470078 9112.536724 8187.104353 7225.897367 8348.705735 8141.637947 7796.907835 11089.139035 8329.665192 58921.172103 12732.697939 13150.281303 11242.346120 10976.038242 11844.426179 8361.599843 8886.463716 13295.036265 10315.009912 10484.612872 8976.643766 8782.041999 9383.254312 2878.661713 8890.376982 9298.431565 12088.609336 9566.495118 11604.381282 12596.890861 14322.623779 9320.417592 3851.362748 7801.786421 8399.981967 6638.629240 10728.244834 9285.829262 6884.316797 11280.867396 8566.560223 9735.280754 7161.312163 8838.377834 8940.169872 8385.528681 10240.761684 7811.654127 11144.644836 11130.625082 12263.988517 10356.467889 14026.308920 6910.820743 9840.927173 13164.114793 28295.056931 8821.106008 7572.602965 9544.076981 8433.894162 8568.596967 8135.264918 8613.654687 10047.457414 56951.477229 7752.417406 9585.110358 9291.978709 13103.073774 11040.778860 7627.993419 13829.354333 6785.498029 11396.050050 12443.474675 8772.742292 8147.259217 -6731.633758 8137.378637 8892.863723 10447.647464 8828.701897 14101.256393 9716.034961 10647.049097 11155.566885 9693.014742 13577.024073 11713.927897 -15560.427118 14207.994811 66852.256211 9063.004535 8311.576610 5340.234168 6279.268351 6588.495578 7831.178185 11693.653004 12026.681051 13034.283390 8314.029767 7040.283531 11537.344301 8160.147840 12018.914011 10901.169775 13516.050450 13133.044682 12478.486350 10970.266063 28612.748806 12918.455980 11669.456368 8408.726668 11833.870106 12896.109301 14085.484437 13192.736604 16488.584443 10002.904824 7579.767974 8512.753260 14326.860265 10146.608683 12952.395823 10740.441400 12464.000212 11590.452363 14296.863635 11883.746423 9931.011509 10337.810951 7892.775948 9217.512442 12230.265689 10717.279291 7805.700992 11057.903049 7253.570948 6876.068594 10419.874181 16719.613947 12383.426276 11462.797640 10303.950402 13020.677909 12787.643138 10983.000504 8029.495628 58269.105097 -10389.541047 9322.252770 7604.774847 10540.343846 9822.710738 6969.994196 10972.226816 13781.685359 9010.197308 8767.392267 8074.783324 15921.999374 8228.110507 11807.706785 9202.747717 12964.089908 11732.759102 13787.486124 14533.879147 11836.556172 8133.085226 11957.750112 9022.696416 12657.666633 5009.675499 6176.988771 9134.280718 9671.291558 9408.524224 10828.589205 8303.566061 10910.129933 11794.447034 8085.971895 14825.696012 11636.447280 13965.675321 14286.620885 10738.554561 9873.332868 -5288.023673 11548.776579 5747.233745 5834.181131 5829.847566 7733.281637 6209.021323 6038.365436 10592.235742 5641.797788 6728.470836 13407.804883 8845.795135 10683.108725 15491.570000 13347.497126 14716.395851 13476.983705 14325.582060 14326.254397 14328.911559 11720.336047 7552.347191 8143.676797 4658.493472 7733.572254 4007.487388 9476.227154 11829.926343 12324.824138 7632.879039 9268.434983 8799.926095 16115.217471 10742.101740 12902.576636 14405.961196 10191.921260 14670.442707 11243.122485 12921.525599 8414.407626 13807.747424 7427.263595 7998.044989 12167.877984 7437.007474 13441.555989 8113.064293 10481.088838 12024.652395 11839.002366 10368.218148 14169.612434 14499.652715 16078.346896 14366.388362 13599.432948 14038.748649 10222.993497 13036.025211 7205.348128 14391.308932 12826.723975 11111.465431 12187.353225 11397.399992 9559.301266 13457.773844 8645.696967 14054.453229 14625.294521 14093.276853 16790.133114 13733.908906 11560.458572 10075.280609 14850.164787 9728.127425 12984.375903 11913.663025 17554.575945 14546.163922 6610.857319 10025.011248 5291.972721 13315.420270 10977.451850 10264.594593 14985.201532 16047.887680 15538.768439 14093.995616 12676.176220 14002.191286 9863.673131 13494.907536 16730.210271 12393.097749 11752.548673 11137.788901 8177.393008 5448.300264 10295.052277 6948.078655 5835.871345 5591.796976 11666.546832 13408.144015 15413.292058 15755.789468 12606.199404 12484.196408 11772.593452 16308.450045 15162.542354 13743.665613 13590.086767 13522.060215 10097.531322 12490.640439 4724.537073 6339.784237 3322.191029 11456.248739 12284.444769 12141.176085 9234.384896 10080.099298 7698.077502 17223.465046 11214.591407 12592.475428 17030.375859 16260.925508 14320.026193 16074.256254 15732.097266 16805.009922 16688.593548 13001.577831 277.599175 6440.581672 4290.015487 6076.887688 9175.271679 10750.620475 6768.059114 9916.748571 8602.905899 11961.885767 10645.633244 14626.840136 9593.770369 13508.803731 15610.192282 16902.559411 13572.716105 15077.499092 14375.708766 10712.808581 811.956625 2327.784846 742.252691 5078.865456 3395.275909 7773.746350 9088.283997 10952.141612 8833.027641 11127.106083 9927.539704 8628.763811 13724.088372 12536.588095 15847.817661 16993.131343 12849.836084 14000.788001 12558.346599 14292.076003 1781.180132 2872.865420 197.995429 815.301524 8475.846804 4092.562580 9306.049095 5702.037265 8424.806748 8459.935667 8430.810408 7910.109653 10315.013618 16304.089970 13143.940358 14754.599417 13077.876022 15893.215385 9945.259114 14584.229534 1026.968489 850.147567 994.960731 135.196477 1777.710718 7225.913374 5132.763287 6249.608674 8163.213767 10011.752369 7663.674092 10785.319350 17438.761369 11185.718573 13061.854744 16458.794654 15038.924868 11949.682629 13030.254433 10987.990493 1467.379182 1593.456987 1828.304657 683.476285 2852.285467 6985.055811 5747.804124 8274.046063 9160.778026 6420.169246 9394.136864 10450.400113 7400.028657 9683.095448 14342.917688 13701.909207 13546.652538 16529.985441 11609.473862 11112.559991 372.714243 269.137278 565.189469 538.625118 3051.798639 5033.228145 5192.358880 6007.324310 10527.718931 9262.652353 11515.935343 12693.369749 9352.918874 15136.165176 16382.879835 17020.195604 15123.084980 16643.622908 13899.287900 12687.854675 6485.850266 166.754305 826.825385 4070.690541 4703.676429 3067.780525 4021.758684 4323.905029 5284.144071 5778.560732 10514.175061 10780.233731 13705.313411 10540.389937 11506.079256 16248.786507 16903.212894 16854.419832 13110.805187 13810.946563 3123.476751 2035.587297 285.947682 145.529536 3697.696600 40