<VTKFile type="PolyData">
<PolyData>
<Piece NumberOfPoints="6715" NumberOfVerts="6715" NumberOfLines="0" NumberOfStrips="0" NumberOfPolys="0">
<PointData>
<DataArray type="Float64" Name="Pressure" format="ascii">
 2480.348517 2667.552489 3014.456659 3474.066692 4097.396718 4881.992034 5611.913326 6168.468064 6312.052876 5926.047125 4519.258054 1297.480530 -2167.941121 -3366.679115 1354.635561 16658.356392 45844.830844 53412.869791 31616.299243 18353.587677 15538.560246 11850.414193 8691.501542 7798.061131 7614.208067 8130.230805 8879.892081 9719.000569 10499.406725 10939.156798 11027.424071 10947.131392 10763.919447 10450.160498 10062.662843 9779.850660 9532.508739 9360.707948 9376.842371 9544.281158 9899.950794 10348.634353 10799.965972 11131.119655 11389.981655 11727.881612 12060.334290 12327.897863 12452.924669 12522.972766 12727.948974 12928.371018 13046.913752 13157.712307 13369.747023 13611.332719 13751.687004 13801.557670 13812.516892 13911.817914 14212.076042 14591.671425 14933.953368 15269.797329 15540.734070 15829.618270 16043.790787 16180.796468 16269.321874 16419.290471 16691.168725 17065.352490 17442.427469 17739.142935 17985.867198 18146.189527 18169.015862 18073.373152 18003.925239 18029.795844 18114.837241 18209.374517 18293.848544 18354.252148 18355.031168 18359.311691 18373.665013 18334.882156 18233.830197 18173.655292 18198.711739 18343.908210 18590.795667 18861.867751 19101.094186 19320.304972 19468.907893 19494.667912 19465.374511 19471.735611 19449.687178 19335.253623 19154.031950 18968.152458 18823.746195 18749.851589 18769.925902 18855.748633 19000.487359 19140.435492 19266.973050 19347.360780 19334.365172 19266.355418 19178.894408 19140.389480 19126.723512 19103.291830 19063.222180 18979.455873 18868.336840 18707.822985 18546.699845 18405.276682 18352.419851 18368.184307 18422.776144 18410.434484 18375.055741 18389.222939 18491.679360 18604.311521 18667.810579 18637.126650 18581.655954 18529.821305 18514.356663 18532.746356 18570.389883 18622.185559 18652.658356 18660.969379 18703.497519 18787.225238 18832.122495 18760.162517 18577.098577 18362.925648 18186.562001 18118.103620 18134.775834 18183.157809 18203.026897 18129.233317 17992.966536 17833.125858 17653.668030 17471.679248 17333.221833 17268.426116 17286.072182 17344.115698 17391.603806 17363.528514 17259.527651 17127.701849 17032.172739 16974.995764 16968.864856 17008.537003 17077.300953 17120.222535 17114.370685 17064.133476 17028.879216 17009.664179 16927.513596 16832.454230 16766.963692 16696.102670 16576.179929 16412.984033 16238.171725 16110.629798 16043.951359 16041.180859 16058.312341 16072.169853 16074.430755 16066.324773 16051.691857 16028.599613 16000.448559 15953.755286 15873.629614 15693.033221 15373.737758 14897.837388 14286.066437 13521.849170 12854.164924 2600.654264 2624.386059 2766.148291 3043.745569 3455.039080 4020.916289 4679.035980 5308.461963 5791.406064 5999.976913 5720.499546 4496.974657 1684.031755 -2421.155637 -6073.030300 -6441.557712 -3062.629199 2697.627361 6626.740681 3326.086947 1194.807081 2855.513955 4048.222510 4978.735430 5960.910207 6927.477075 7841.439404 8662.361188 9392.030462 10010.958021 10381.796050 10480.604521 10421.216134 10249.423289 9977.369604 9710.549049 9539.417099 9449.181645 9436.959146 9519.553102 9729.313841 10066.961996 10473.580281 10889.132920 11233.637209 11526.634115 11824.953216 12094.761559 12307.378312 12432.125165 12551.288155 12766.400076 13013.141436 13217.889295 13384.187132 13563.813772 13718.283061 13786.210133 13783.983692 13779.088095 13872.352281 14127.147180 14485.988944 14857.480983 15220.631165 15564.155048 15863.578666 16077.683881 16221.806667 16327.234782 16457.936474 16686.870334 17007.667291 17341.975582 17624.374373 17847.651117 17989.600944 18030.772809 18009.384642 17992.278609 18019.039699 18091.468543 18179.382201 18250.104366 18281.287329 18266.819108 18245.362374 18256.303084 18272.472202 18264.097731 18279.680485 18350.353197 18478.824736 18666.602845 18896.537301 19127.884568 19336.502034 19469.894482 19481.925176 19432.214562 19390.183451 19326.908541 19207.156839 19040.224058 18837.581189 18649.477094 18543.074223 18562.606178 18687.899761 18861.446336 19013.430957 19138.435467 19209.720210 19199.780991 19135.484991 19057.414496 19000.576477 18964.790014 18920.821935 18849.177304 18762.504650 18648.287834 18509.658659 18367.969537 18257.479058 18228.837752 18258.960056 18299.762950 18319.682777 18335.162295 18376.864431 18454.421930 18531.341867 18581.585172 18576.976934 18530.444075 18483.762921 18467.950144 18478.558239 18514.241578 18559.120687 18581.694450 18602.197132 18668.515340 18767.340956 18819.786688 18763.474375 18606.615194 18407.870299 18233.722516 18134.123940 18111.200939 18122.612967 18112.885453 18043.286337 17918.431537 17755.546608 17576.428501 17404.130997 17267.347078 17194.311030 17192.426410 17227.506104 17241.853006 17197.836570 17104.840870 16997.445551 16919.441622 16889.266638 16903.509418 16949.797623 17012.070366 17053.550001 17050.279929 17014.858198 16974.759375 16928.964728 16866.408890 16796.603971 16720.831988 16616.565696 16457.918037 16263.515138 16080.707874 15945.085256 15868.567208 15847.504367 15860.579795 15881.389245 15888.296640 15868.427770 15835.868878 15800.226068 15763.886148 15708.000339 15606.661876 15396.499890 15039.100045 14537.208904 13907.216379 13180.669515 12536.594609 12113.549522 2704.291976 2689.619087 2710.662335 2832.294774 3068.997490 3444.382295 3956.693258 4547.739117 5118.835903 5568.167185 5788.315893 5563.855134 4409.399765 1688.696228 -2630.918091 -7271.497522 -10202.607142 -10620.471958 -9898.344173 -8895.713872 -8188.006404 -6524.997368 -3354.139434 111.297314 2948.591268 5071.060371 6611.206858 7733.236483 8584.545452 9272.890517 9812.809905 10142.700792 10248.953365 10188.360822 10016.707068 9783.341018 9569.060021 9435.648438 9392.286008 9431.382030 9557.576000 9789.655113 10119.629648 10504.715764 10889.433009 11231.306030 11533.945090 11814.964355 12065.146547 12260.819153 12402.582323 12555.320527 12769.938716 13020.934277 13250.056529 13440.984749 13605.324195 13723.970472 13769.924305 13760.071205 13762.622091 13859.619676 14091.661528 14426.776173 14802.061866 15177.756218 15531.613116 15833.715102 16058.283422 16210.746239 16327.277263 16466.644868 16681.309620 16968.903444 17274.882849 17545.241363 17754.012438 17885.949546 17940.973036 17951.970518 17961.871352 17998.177760 18067.128269 18147.374125 18204.446945 18219.864174 18204.982186 18191.621899 18205.996608 18239.274952 18274.541236 18323.123468 18404.041488 18526.680638 18698.982208 18910.592631 19129.152508 19315.907818 19427.083028 19446.090800 19409.650150 19356.003533 19279.631390 19158.604289 18987.049557 18778.161603 18584.933929 18472.137712 18473.854806 18579.821991 18740.688264 18900.261015 19025.570318 19097.906016 19106.520870 19063.418463 18996.499145 18929.292636 18872.304585 18813.467344 18735.401194 18640.043279 18524.326467 18392.724232 18269.001399 18183.783701 18161.088561 18189.387137 18231.942352 18267.692116 18301.832911 18346.264694 18409.321702 18475.409047 18520.870876 18525.794134 18495.070187 18457.330046 18439.217823 18448.463065 18481.131256 18522.270285 18554.957164 18591.751343 18660.922207 18745.985343 18787.203560 18736.507094 18595.379565 18411.292168 18243.967367 18136.484760 18093.722151 18083.113727 18058.494142 17988.134283 17866.949502 17708.095288 17533.124278 17366.810536 17235.483086 17160.059937 17142.944675 17155.615264 17152.008516 17104.243292 17018.177706 16923.162207 16854.579780 16832.311535 16852.701530 16901.962113 16960.593461 17001.195131 17005.755635 16980.316790 16936.696221 16881.485184 16820.230210 16753.216478 16669.391290 16548.608981 16380.722395 16185.073098 16000.199392 15858.622327 15774.538843 15742.110638 15743.166003 15755.274557 15757.033804 15737.813121 15704.794503 15667.829498 15624.658971 15557.745328 15433.732118 15207.528661 14844.553839 14341.052181 13722.213689 13044.629258 12398.700139 11951.311847 11768.305648 12854.164924 13307.096632 13707.600037 13787.347798 13553.673838 13077.719838 12506.407297 11861.662129 11173.350369 10468.257211 9724.493769 8855.147160 8001.350052 7219.252517 6471.880199 5733.630268 5052.479528 4365.442306 3832.394266 3312.680091 2995.213967 2638.304017 2362.478707 2166.042845 2022.503829 1914.794935 1830.061804 1758.906852 1694.674653 1632.783843 1570.250489 1505.346847 1437.324279 1366.164940 1292.357390 1216.703154 1140.159283 1063.717742 988.319048 914.795758 843.840573 775.993702 711.644470 651.042657 594.315804 541.489440 492.507932 447.254336 405.568211 367.260851 332.127712 299.958126 270.542526 243.677509 219.169126 196.834762 176.503962 158.018500 141.231952 126.008964 112.224384 99.762352 88.515424 78.383782 69.274534 61.101128 53.782857 47.244459 41.415781 36.231505 31.630910 27.557666 23.959646 20.788739 18.000679 15.554861 13.414159 11.544744 9.915890 8.499784 7.271335 6.207979 5.289490 4.497793 3.816788 3.232171 2.731272 2.302898 1.937186 1.625463 1.360121 1.134495 0.942757 0.779813 0.641204 0.523011 0.421717 0.333949 0.255484 0.182654 0.145645 12113.549522 12436.582574 12827.766986 13132.214005 13203.632651 13009.143584 12607.279326 12075.985816 11469.952331 10820.740040 10138.670118 9408.904500 8624.888232 7839.080873 7081.452707 6357.365076 5651.720736 4981.586928 4350.721417 3795.665962 3315.661806 2931.078676 2608.668669 2353.440917 2162.026088 2020.434353 1913.656717 1829.441040 1758.608103 1694.585751 1632.828819 1570.371974 1505.500346 1437.476736 1366.293552 1292.448168 1216.749255 1140.159324 1063.674231 988.237037 914.681724 843.701544 775.836621 711.475746 650.867900 594.139694 541.315700 492.339374 447.092953 405.415303 367.117148 331.993500 299.833362 270.426936 243.570670 219.070527 196.743858 176.420204 157.941358 141.160929 125.943601 112.164266 99.707100 88.464698 78.337270 69.231951 61.062210 53.747360 47.212152 41.386446 36.204933 31.606902 27.536032 23.940202 20.771312 17.985101 15.540974 13.401813 11.533797 9.906210 8.491247 7.263825 6.201390 5.283724 4.492760 3.812406 3.228365 2.727975 2.300050 1.934733 1.623356 1.358317 1.132957 0.941453 0.778717 0.640307 0.522341 0.421428 0.334612 0.259530 0.195405 0.154003 0.136902 11768.305648 11915.603607 12228.298417 12590.434961 12848.264031 12906.661638 12733.071993 12362.369016 11858.216257 11275.255797 10643.964385 9972.037422 9256.736917 8506.233643 7748.766157 7009.206775 6295.087261 5606.293769 4948.732908 4335.351538 3784.952461 3310.515598 2918.284266 2600.757018 2351.572179 2162.652661 2021.487483 1914.514318 1829.991071 1758.891904 1694.672319 1632.783625 1570.250553 1505.346871 1437.324280 1366.164939 1292.357390 1216.703153 1140.159283 1063.717742 988.319048 914.795758 843.840573 775.993702 711.644470 651.042657 594.315804 541.489440 492.507932 447.254336 405.568211 367.260851 332.127712 299.958126 270.542526 243.677509 219.169126 196.834762 176.503962 158.018500 141.231952 126.008964 112.224384 99.762352 88.515424 78.383782 69.274534 61.101128 53.782857 47.244459 41.415781 36.231505 31.630910 27.557666 23.959646 20.788739 18.000679 15.554861 13.414159 11.544744 9.915890 8.499784 7.271335 6.207979 5.289490 4.497793 3.816788 3.232171 2.731272 2.302898 1.937186 1.625464 1.360122 1.134497 0.942763 0.779832 0.641267 0.523219 0.422403 0.336204 0.263111 0.203772 0.160592 0.138615 0.132166 0.145645 0.127063 0.099401 0.079424 0.064104 0.051838 0.041891 0.033797 0.027211 0.021860 0.017523 0.014014 0.011181 0.008901 0.007069 0.005600 0.004426 0.003490 0.002745 0.002154 0.001686 0.001316 0.001025 0.000796 0.000617 0.000477 0.000368 0.000283 0.000217 0.000166 0.000126 0.000096 0.000073 0.000055 0.000042 0.000031 0.000023 0.000018 0.000013 0.000010 0.000007 0.000005 0.000004 0.000003 0.000002 0.000002 0.000001 0.000001 0.000001 0.000000 0.000000 0.000000 0.000000 0.000000 0.000000 0.000000 0.000000 0.000000 0.000000 0.000000 0.000000 0.000000 0.000000 0.000000 0.000000 0.000000 0.000000 0.000000 0.000000 0.000000 0.000000 0.000000 0.000000 0.000000 0.000000 0.000000 0.000000 0.000000 0.000000 0.000000 0.000000 0.000000 -0.000000 0.000000 0.000000 0.000000 0.000000 0.000000 0.000000 0.000000 0.000000 -0.000000 -0.000000 -0.000000 -0.000000 -0.000000 -0.000000 -0.000000 -0.000000 -0.000000 -0.000000 -0.000000 -0.000000 -0.000000 -0.000000 -0.000000 -0.000000 -0.000000 -0.000000 -0.000000 -0.000000 -0.000000 -0.000000 -0.000000 -0.000001 -0.000001 -0.000001 -0.000001 -0.000002 -0.000003 -0.000003 -0.000004 -0.000006 -0.000008 -0.000010 -0.000014 -0.000018 -0.000024 -0.000031 -0.000041 -0.000053 -0.000069 -0.000090 -0.000117 -0.000151 -0.000195 -0.000252 -0.000324 -0.000415 -0.000531 -0.000678 -0.000864 -0.001099 -0.001395 -0.001765 -0.002230 -0.002811 -0.003535 -0.004436 -0.005555 -0.006940 -0.008652 -0.010762 -0.013357 -0.016542 -0.020442 -0.025205 -0.031009 -0.038067 -0.046628 -0.056988 -0.069497 -0.084565 -0.102674 -0.124385 -0.150355 -0.181346 -0.218241 -0.262063 -0.313989 -0.375373 -0.447764 -0.532933 -0.632900 -0.749953 -0.886686 -1.046026 -1.231263 -1.446089 -1.694629 -1.981478 -2.311737 -2.691051 -3.125644 -3.622352 -4.188661 -4.832734 -5.563440 -6.390379 -7.323897 -8.375108 -9.555905 -10.878992 -12.357989 -14.007788 -15.845762 -17.895870 -20.202175 -22.887538 -26.168868 -28.201070 0.136902 0.131638 0.116466 0.096152 0.078434 0.063733 0.051664 0.041786 0.033722 0.027153 0.021814 0.017485 0.013983 0.011156 0.008880 0.007052 0.005587 0.004416 0.003482 0.002738 0.002149 0.001682 0.001313 0.001022 0.000794 0.000615 0.000476 0.000367 0.000282 0.000216 0.000165 0.000126 0.000096 0.000073 0.000055 0.000041 0.000031 0.000023 0.000017 0.000013 0.000010 0.000007 0.000005 0.000004 0.000003 0.000002 0.000002 0.000001 0.000001 0.000001 0.000000 0.000000 0.000000 0.000000 0.000000 0.000000 0.000000 0.000000 0.000000 0.000000 0.000000 0.000000 0.000000 0.000000 0.000000 0.000000 0.000000 0.000000 0.000000 0.000000 0.000000 0.000000 0.000000 0.000000 0.000000 0.000000 0.000000 0.000000 0.000000 -0.000000 -0.000000 0.000000 0.000000 -0.000000 -0.000000 0.000000 0.000000 0.000000 -0.000000 0.000000 0.000000 0.000000 0.000000 -0.000000 -0.000000 -0.000000 -0.000000 -0.000000 -0.000000 -0.000000 -0.000000 -0.000000 -0.000000 -0.000000 -0.000000 -0.000000 -0.000000 -0.000000 -0.000000 -0.000000 -0.000000 -0.000000 -0.000000 -0.000000 -0.000000 -0.000001 -0.000001 -0.000001 -0.000001 -0.000002 -0.000003 -0.000003 -0.000004 -0.000006 -0.000008 -0.000010 -0.000014 -0.000018 -0.000024 -0.000031 -0.000041 -0.000053 -0.000069 -0.000090 -0.000117 -0.000151 -0.000195 -0.000251 -0.000323 -0.000414 -0.000530 -0.000677 -0.000862 -0.001096 -0.001391 -0.001761 -0.002225 -0.002804 -0.003527 -0.004426 -0.005543 -0.006925 -0.008634 -0.010740 -0.013330 -0.016510 -0.020402 -0.025158 -0.030953 -0.037999 -0.046546 -0.056891 -0.069381 -0.084428 -0.102510 -0.124192 -0.150127 -0.181077 -0.217927 -0.261695 -0.313560 -0.374872 -0.447183 -0.532261 -0.632123 -0.749058 -0.885658 -1.044848 -1.229917 -1.444555 -1.692886 -1.979502 -2.309504 -2.688535 -3.122815 -3.619183 -4.185119 -4.828787 -5.559055 -6.385520 -7.318527 -8.369181 -9.549354 -10.871676 -12.349527 -13.997007 -15.828886 -17.860395 -20.105965 -22.566185 -25.153319 -27.018344 -27.726095 0.132166 0.130926 0.124398 0.110585 0.093995 0.077805 0.063612 0.051690 0.041846 0.033783 0.027207 0.021859 0.017522 0.014013 0.011181 0.008901 0.007069 0.005600 0.004426 0.003490 0.002745 0.002154 0.001686 0.001316 0.001025 0.000796 0.000617 0.000477 0.000368 0.000283 0.000217 0.000166 0.000126 0.000096 0.000073 0.000055 0.000042 0.000031 0.000023 0.000018 0.000013 0.000010 0.000007 0.000005 0.000004 0.000003 0.000002 0.000002 0.000001 0.000001 0.000001 0.000000 0.000000 0.000000 0.000000 0.000000 0.000000 0.000000 0.000000 0.000000 0.000000 0.000000 0.000000 0.000000 0.000000 0.000000 0.000000 0.000000 0.000000 0.000000 0.000000 0.000000 0.000000 0.000000 0.000000 0.000000 0.000000 0.000000 0.000000 0.000000 0.000000 -0.000000 0.000000 0.000000 -0.000000 0.000000 0.000000 0.000000 0.000000 0.000000 0.000000 0.000000 -0.000000 0.000000 -0.000000 -0.000000 -0.000000 -0.000000 -0.000000 -0.000000 -0.000000 -0.000000 -0.000000 -0.000000 -0.000000 -0.000000 -0.000000 -0.000000 -0.000000 -0.000000 -0.000000 -0.000000 -0.000000 -0.000000 -0.000000 -0.000000 -0.000001 -0.000001 -0.000001 -0.000001 -0.000002 -0.000003 -0.000003 -0.000004 -0.000006 -0.000008 -0.000010 -0.000014 -0.000018 -0.000024 -0.000031 -0.000041 -0.000053 -0.000069 -0.000090 -0.000117 -0.000151 -0.000195 -0.000252 -0.000324 -0.000415 -0.000531 -0.000678 -0.000864 -0.001099 -0.001395 -0.001765 -0.002230 -0.002811 -0.003535 -0.004436 -0.005555 -0.006940 -0.008652 -0.010762 -0.013357 -0.016542 -0.020442 -0.025205 -0.031009 -0.038067 -0.046628 -0.056988 -0.069497 -0.084565 -0.102674 -0.124385 -0.150355 -0.181346 -0.218241 -0.262063 -0.313989 -0.375373 -0.447764 -0.532933 -0.632900 -0.749953 -0.886686 -1.046026 -1.231263 -1.446089 -1.694629 -1.981478 -2.311737 -2.691051 -3.125644 -3.622352 -4.188661 -4.832734 -5.563439 -6.390375 -7.323884 -8.375067 -9.555769 -10.878549 -12.356543 -14.003067 -15.830353 -17.845560 -20.038323 -22.345023 -24.566241 -26.359984 -27.251057 -27.464798 -28.201070 -31.203158 -36.806537 -42.397050 -48.137274 -54.177093 -60.565394 -67.326402 -74.475548 -82.024173 -89.980731 -98.350951 -107.137688 -116.340699 -125.956412 -135.977706 -146.393721 -157.189706 -168.346894 -179.842423 -191.649289 -203.736333 -216.068264 -228.605706 -241.305279 -254.119709 -266.997998 -279.885658 -292.725064 -305.455940 -318.016031 -330.341939 -342.370074 -354.037569 -365.282889 -376.045778 -386.266081 -395.881152 -404.821954 -413.008920 -420.350049 -426.744983 -432.098060 -436.336663 -439.414619 -441.257147 -441.633797 -440.036444 -435.857936 -429.144258 -421.704483 -418.781551 -425.706471 -449.174584 -486.638622 -533.668446 -583.941632 -655.369065 -706.212172 -733.310680 -786.040657 -847.409192 -904.753430 -980.010317 -1074.001243 -1261.013274 -1441.729664 -1630.818560 -1810.157681 -1758.211893 -1298.743826 -669.146958 -343.708722 -247.134507 -284.078306 -530.693609 -992.734618 -1624.311598 -2057.914135 -2321.320860 -2328.500399 -2074.187248 -2131.482102 -2416.767496 -2419.143090 -2087.408354 -1594.068663 -1124.306572 -948.154382 -952.970905 -1015.816773 -975.419438 -742.224760 -392.823662 36.696696 525.936560 992.487640 1398.987466 1766.362976 2199.913364 2480.348517 -27.726095 -29.075758 -32.328768 -37.173225 -42.485006 -48.152235 -54.169805 -60.550974 -67.309435 -74.457493 -82.005552 -89.961788 -98.331852 -107.118586 -116.321749 -125.937777 -135.959557 -146.376237 -157.173070 -168.331294 -179.828049 -191.636330 -203.724979 -216.058703 -228.598122 -241.299850 -254.116607 -266.997385 -279.887681 -292.729846 -305.463575 -318.026574 -330.355400 -342.386418 -354.056730 -365.304799 -376.070417 -386.293549 -395.911734 -404.856150 -413.047357 -420.393216 -426.792768 -432.149469 -436.390542 -439.473012 -441.334309 -441.759622 -440.256093 -436.205040 -429.622452 -422.359410 -419.079070 -426.392876 -449.733456 -489.340799 -541.750938 -600.829282 -659.028416 -703.916376 -741.586661 -787.143691 -842.801521 -911.504865 -1001.192508 -1118.044350 -1265.960752 -1409.806552 -1531.449288 -1603.663038 -1512.464383 -1196.860020 -775.458517 -426.861174 -255.981728 -282.683983 -501.766719 -889.380530 -1380.795769 -1823.674647 -2101.744014 -2213.052167 -2279.245081 -2428.997365 -2609.143349 -2612.251453 -2350.516024 -1975.346540 -1568.285423 -1324.492607 -1260.287719 -1250.272550 -1190.366076 -1024.562454 -730.782885 -340.159225 112.924163 585.072326 1069.786206 1506.859240 1989.228271 2391.791919 2600.654264 -27.464798 -27.965308 -29.692619 -33.041124 -37.463080 -42.593953 -48.197808 -54.195633 -60.571075 -67.328143 -74.476081 -82.024336 -89.980782 -98.350967 -107.137693 -116.340701 -125.956413 -135.977706 -146.393721 -157.189706 -168.346894 -179.842423 -191.649289 -203.736333 -216.068264 -228.605706 -241.305279 -254.119709 -266.997998 -279.885658 -292.725064 -305.455940 -318.016031 -330.341939 -342.370074 -354.037569 -365.282889 -376.045778 -386.266081 -395.881152 -404.821952 -413.008920 -420.350057 -426.745030 -432.098463 -436.338640 -439.422301 -441.285475 -441.713699 -440.234349 -436.289784 -429.978529 -423.258261 -420.692617 -428.596290 -452.163826 -492.455723 -545.536552 -603.621141 -657.554647 -702.309933 -742.818576 -788.090694 -844.594769 -918.063678 -1014.210825 -1134.130384 -1267.781685 -1392.330547 -1481.263599 -1497.450088 -1381.017012 -1108.495512 -759.148981 -453.684621 -285.348108 -296.701813 -489.726418 -835.003189 -1261.702041 -1663.585339 -1957.702271 -2148.971115 -2317.145876 -2511.285913 -2675.701962 -2682.492396 -2473.926096 -2127.755083 -1768.235027 -1520.238345 -1405.240262 -1350.353978 -1274.763312 -1116.653056 -848.802721 -485.797898 -56.558235 408.305962 889.710972 1378.216427 1872.256144 2322.493049 2603.726717 2704.291976 5646.829950 -396.938262 3101.540097 996.614475 -593.970951 -1878.543372 163.507878 132.283394 969.995893 -749.927997 -1100.323736 854.612600 3564.907890 49.668102 1147.333355 420.239758 546.480535 1700.790683 2700.808121 2540.032118 1393.227785 -2295.600276 -144.413827 3248.486566 981.327533 4525.058387 737.888503 3489.561068 514.579947 1145.441723 2955.427111 393.103171 609.230658 878.175558 1810.555645 1704.091921 1690.687628 1630.626827 3341.397777 3680.506844 4763.924157 -247.715935 796.454349 870.559409 2772.720980 2770.695032 -3183.352593 1811.276840 3129.887497 2461.467706 1756.493845 210.909131 4045.718711 788.583930 2570.473378 3199.764365 2926.231785 2206.480834 3035.134934 1846.349835 4109.131863 5068.253280 24364.718306 2108.138314 3325.002545 6665.843306 2475.217475 277.164644 1280.067066 2349.231175 2239.436668 -1209.957114 2128.668262 1568.829679 3210.085685 2948.891393 6103.589897 2607.437577 3719.087756 4153.152597 430.940861 1351.178676 22502.614504 5721.153601 4457.039564 5868.346136 74050.240189 38028.979458 4675.199219 -379.430975 4452.032412 4746.217617 2025.221291 -260.654875 4117.635932 3026.287360 1707.204088 7382.351827 4188.138454 5361.663885 1500.566560 4926.704507 -3060.289224 2674.357646 -3062.137810 19822.100045 6582.921595 19143.850569 720.145103 6200.888521 -2996.377097 4674.151516 1261.127825 4652.899324 1907.879858 4448.821049 1852.713039 3257.042545 6400.728237 702.618552 3423.723938 1854.520277 4477.943431 7409.697563 5967.845121 43271.726223 8443.733369 4555.393136 34648.863686 47903.085137 14003.610215 3084.229126 4490.244292 6344.810145 10109.034269 70616.620382 5675.876431 3917.531190 4296.893970 6049.418004 58398.866272 1253.704073 79820.205893 5779.752817 4238.436876 27136.720417 52427.143400 11240.433686 10745.045966 8360.861323 2744.467802 -2663.429705 4301.928372 23694.914455 11897.386191 5149.021762 -2158.087053 3253.728885 -2679.078414 3766.305334 6853.932309 6852.518139 6350.799161 2214.196077 76048.825732 -3534.998164 10072.954964 32497.324513 4951.433710 2844.069512 8290.413372 1826.142779 2957.901472 -2663.213292 5755.995089 1430.177542 8595.826151 4944.693513 5248.772363 5055.262077 22007.334499 8406.937029 3198.893255 9838.378172 3546.124302 83244.980688 62750.822296 1851.792862 6135.116966 9252.962406 82842.884361 24770.290658 10253.317223 80664.847158 3412.597873 -1078.634846 22515.998761 -2761.495111 7668.389565 3240.940476 34681.401086 -2971.790863 -3259.588912 3594.253710 3483.419445 3948.352880 16143.118929 6049.568592 28652.567948 3519.533432 7930.718414 8302.771648 5015.708565 7527.052133 5842.172875 42153.710211 5241.480027 10068.081562 12404.032112 10469.846988 5019.234468 78376.473905 82235.308957 6256.837318 -975.386503 2945.617177 7383.385800 7335.456787 5379.383997 8028.296996 10769.684706 82293.147147 4480.975996 3943.210877 6951.582017 9038.894865 6375.414534 10281.826998 11274.506677 21994.396623 49265.513544 7392.476255 5213.801922 3020.362301 20245.184776 29458.156729 9531.359759 6407.510454 8695.398302 4431.105108 4305.086349 4143.193012 5319.688796 5967.238689 9436.178465 8437.631364 30901.948531 8303.400335 9907.244068 10090.745723 6348.599461 9161.872898 5025.018789 7862.616297 8724.563517 7761.619546 10452.177486 5091.471329 7462.595162 8597.104602 11839.112770 8201.878219 9386.891884 7922.907843 8911.287653 9322.716170 8586.097241 9047.643690 35892.758763 -881.281330 5579.032545 6163.057007 4736.012194 7031.733191 7216.512783 2182.475440 6860.251657 5188.063682 10666.945009 3616.482172 5933.549030 6218.833011 3871.270049 6395.036613 2949.759718 7515.794073 9305.249294 8083.729530 6668.514355 9258.593525 2890.957016 6724.757991 9234.355880 80369.964365 8828.517844 5194.244039 5207.775640 3783.728496 6297.734825 5956.003847 6425.368183 7932.334387 72206.048308 4222.685248 6039.948878 6070.080672 8543.111721 9942.317402 6744.750087 9747.895039 3718.741709 7049.048298 10580.440457 5993.857105 3905.737173 23200.816107 5201.063705 4448.401327 6321.674936 5179.475405 11105.304088 6843.098915 9119.133079 7475.175879 5560.790422 10067.378769 9472.348929 18169.589635 48027.986339 27277.449427 7786.274414 7636.380849 3369.168114 3730.470770 3532.577950 4694.426916 10170.870654 8717.770619 8624.185103 6079.500238 4804.890717 10142.445138 7581.668371 10862.871223 8806.437165 10017.870626 8663.759259 9720.865745 7530.571474 59318.747834 10118.152300 10059.277958 7095.211586 9474.846078 10540.543932 10695.832794 8814.437142 12802.563318 8185.923635 6747.846604 7441.409555 11697.937541 8304.528779 11729.557197 8671.644137 11086.363368 9216.959083 9021.390816 7571.214256 6829.784505 8614.372975 5715.538656 7129.609176 9247.152110 8343.552037 6709.210666 8970.561180 6252.924394 4888.440049 9513.070861 13506.870354 11642.809946 9597.435416 8029.663912 11440.005159 10068.027399 9844.083227 7239.228819 56411.927386 11387.588501 6954.181131 6773.929340 8309.537740 7970.351490 5945.539404 8347.236475 11550.768736 8315.428492 6832.484214 7233.858804 12287.172052 7385.609371 10728.054383 7067.865125 11497.776006 9920.469855 10610.273879 11577.099250 10862.090015 7411.105616 10452.474296 7314.081154 9707.514488 5069.975289 5370.870421 6806.192169 8832.209383 7646.120343 9916.333187 7115.939697 9607.283946 10430.740427 7357.178620 12679.389301 9735.198419 11253.191778 10393.658031 8921.658239 9831.158238 10003.445385 9969.523012 5573.015829 5363.499024 5671.444757 6523.067126 5872.091989 5572.265795 9323.946254 5068.103358 6284.440090 11696.686845 8149.135187 9591.206107 13019.791012 12109.536746 11267.865354 12234.843492 10052.733798 8348.712655 10987.396365 10139.703134 6851.293275 7352.398101 4865.797514 6826.281508 4065.777320 8625.996750 11000.861676 11183.463727 6963.168461 8266.062786 7979.166111 13507.826581 9464.923086 12089.952000 11320.637950 11031.233411 13679.510114 8076.375556 8793.696693 7443.894611 11765.430261 6604.020764 7097.387377 10789.879368 6810.670228 11805.191863 7421.554669 9364.616396 10412.492704 10947.543273 9277.650104 13070.528962 12182.172908 13479.361674 12002.143773 10630.396248 10880.218396 11136.849790 8475.777747 6560.376767 12366.012116 11178.915997 9797.276847 10935.462961 10507.669509 8406.209977 12042.774484 7729.601892 12189.016448 12697.494119 12537.897988 13997.355174 12811.301231 10836.570747 9288.764317 13483.798403 7827.293194 9854.590997 8427.984778 14682.859705 12279.588782 6075.914322 8661.763167 5123.915572 11527.416232 9800.042334 9202.580538 12990.621351 14417.910840 13256.785660 12467.271500 11731.268477 13073.692833 8478.027747 9114.292894 15288.938024 10856.482144 11235.490843 10114.367490 7179.827833 5206.435173 8918.108362 6182.435408 5393.720780 5377.680274 10130.803788 12195.345701 12909.998121 13727.929122 11908.244535 10723.288340 10294.643666 13517.964918 13623.065143 12284.402483 11070.347810 12664.562961 10516.482294 10028.768545 4762.633931 6056.532470 3738.450333 9899.782646 10601.983428 10753.356595 8075.217657 8623.541706 7053.516552 15151.642679 9705.912451 11097.228258 14344.128923 14292.347667 13354.143664 13714.829066 13957.315720 14130.973145 14383.248806 10699.165976 1698.296182 5819.726152 3740.424506 5812.750474 7856.836446 9368.824488 6260.650063 8523.397700 7776.647895 10834.091566 9159.825035 12698.076446 8578.379546 11125.342739 12116.360776 14418.378743 12308.238030 11957.922982 11541.991929 10811.043001 2123.665781 2486.259190 2372.949626 4791.263068 3097.028884 7000.521257 7903.720979 9325.190730 7949.030139 9798.205442 8834.410761 7801.651323 12262.406710 11335.282256 14334.497101 14454.673926 11295.850942 12391.243014 11049.084463 12040.623324 2267.196978 3152.957939 1658.260231 1786.228952 7042.610791 4054.630693 8408.535091 5401.906717 7640.609938 7355.353194 7422.714814 6983.532060 9322.978610 15259.268097 11925.262977 13292.058332 11400.851067 12974.426349 7938.135928 11982.178591 2029.101463 1926.940651 2570.968595 1995.416160 2717.278712 6512.095921 4893.383915 5763.108386 7410.295761 9034.469768 6997.207059 9834.395610 16218.006537 10175.379795 12017.513109 14976.025652 13987.569237 11001.580906 8663.200077 10200.222166 2080.865334 2069.467510 2664.245303 1685.810598 3122.256195 6334.165340 5011.050093 7324.108504 8266.224781 5988.318118 8412.755731 9459.072255 6804.977243 8768.923720 12943.665993 12566.083222 11866.001362 13407.450866 9855.012219 9999.405702 2008.970140 1619.618234 2364.876690 1752.732043 3443.034231 4599.688502 5010.318699 5581.973932 9335.096274 8340.224309 10400.871012 11500.203454 7913.024768 14272.118195 15249.966997 15006.256987 12696.743414 14198.938460 12789.358207 11264.914689 3697.956521 -194.036355 2177.511432 3391.216364 4294.323336 2884.234782 3598.913281 4011.634902 4831.394145 5411.090004 9083.964876 9782.329838 12471.832588 9731.962589 10458.606906 15121.547166 13702.907799 14890.458201 12213.287240 9333.541174 2608.456992 2588.302117 1691.988060 1489.095210 3467.693176 3920.410138 3963.985819 5110.727344 8821.087803 5703.609426 8872.631842 9175.603371 10289.096535 11862.8147