<VTKFile type="PolyData">
<PolyData>
<Piece NumberOfPoints="6715" NumberOfVerts="6715" NumberOfLines="0" NumberOfStrips="0" NumberOfPolys="0">
<PointData>
<DataArray type="Float64" Name="Pressure" format="ascii">
 22116.597649 21047.538999 19827.904465 18793.700141 18089.766180 17705.021939 17852.762440 18197.090300 18804.191255 19645.516098 21617.689718 24218.382149 26258.463277 28885.830928 29718.755203 26710.007963 23950.093534 23997.646623 23080.333248 19536.126437 16685.203743 16815.828316 17298.529205 17650.901530 15935.312380 14303.431896 15910.083705 18916.062997 20446.594940 20247.154625 19349.703584 19976.770874 21708.994246 23262.583634 22940.873670 22088.523192 22142.513064 21542.258841 19802.736955 19355.176286 20513.464616 22089.921320 23091.269148 23266.474464 22379.475329 20065.068315 19160.074143 19756.482450 21069.902654 23047.977891 22957.454856 22289.840772 22088.679517 22201.377036 22124.102038 23100.144807 24585.018645 25427.070523 25665.532926 27058.988978 29743.610550 30328.559979 28010.311455 26885.265614 27649.796143 28756.742757 28627.784952 27668.989756 28009.161704 29562.868625 30507.225633 30244.796187 30049.634822 30385.857161 29136.204898 28813.871983 29739.599405 30479.146374 30040.478694 30001.708679 31037.492140 31714.018550 30758.079101 28236.535099 24795.729102 25063.550723 30189.419993 32139.952821 30065.462126 27535.106494 26901.590325 27486.174583 26646.810378 25053.240697 24876.248948 25847.644626 27113.480884 27992.846114 28132.635162 27955.569720 27712.136082 27490.626858 28091.548929 28689.614654 28730.945645 27515.371634 27210.006205 26787.213980 26330.686906 26273.960424 26000.768226 25748.898660 25098.527602 25005.097195 25473.222985 26161.480586 26338.304615 26176.061013 26207.898685 25700.884409 25054.715614 24696.926417 24633.548437 24765.369917 24860.269131 24672.154896 23887.065235 23198.144183 23018.255231 22908.366106 23097.306677 23282.401393 23909.249797 25011.210417 25088.964020 24795.884055 24231.850107 24433.346417 25457.680063 25909.907443 25986.452457 25559.539847 25103.668068 24373.024122 24233.077602 24425.289883 24818.218252 25012.516171 24978.801588 24850.510970 24451.479815 23593.238376 23018.566785 23000.974958 23190.670913 23361.168794 23518.061495 23585.909336 23612.041318 23278.001095 23087.645409 22957.786624 22654.720605 22346.590077 22022.541058 21707.154871 21659.498750 21472.383572 21209.829410 21035.956913 20997.769509 20983.821395 21183.451020 21574.847084 21817.412348 21583.257053 21492.008637 21570.911146 21661.908039 21477.776299 21120.623219 20888.776000 20917.658127 20991.668381 20781.812529 20723.194291 20728.985261 21362.331430 22234.271148 22458.286147 22238.114491 22183.651002 22167.503649 21564.990733 21055.495522 20991.782939 21091.429739 21023.912028 20542.293721 19346.852412 18072.913910 25237.904593 24027.534306 22974.018400 22415.110817 21831.933294 20850.084173 19895.899405 19508.803303 19669.555767 20342.354428 21468.611165 23085.436401 25087.946811 26845.272169 27557.181450 25829.404858 22608.077837 19632.005312 18594.823047 18976.106196 18598.770961 18231.490110 18510.693237 19049.876016 19146.846179 18307.603182 17457.103151 18200.437667 19939.578819 20914.009294 20952.667753 20675.257250 21025.430424 22134.546144 23332.007074 23227.997881 22562.717208 22726.060325 22727.415498 21853.779511 21257.427635 21778.019273 23027.329845 23954.454208 23988.274279 23202.127552 21863.185452 21534.548212 22212.120084 22929.577165 23308.766862 23377.178471 23564.618824 23913.646924 23936.347978 23807.015070 24104.967303 24974.551807 25878.506563 26415.709418 27158.469056 28551.740588 29410.300880 28859.983196 28418.400922 28828.469679 28994.283155 28395.719762 28192.215065 28817.090579 29848.424657 30423.342782 30264.434319 29998.026184 29638.810166 28899.158015 28870.537208 30065.407714 31055.412611 30668.467634 30171.009468 30533.231980 31051.594929 30915.516417 29810.416466 28295.191444 27792.978598 28655.163170 28627.540091 27542.344531 26738.697195 26579.820561 26571.726197 26420.462747 25862.602644 25561.984983 26158.534523 27140.051370 27763.305542 28054.150961 27947.584018 27705.879540 27697.876338 27998.378227 28285.069143 28433.457763 28359.927925 27741.977379 26952.143499 26598.271546 26451.271891 26103.101423 25575.054718 25071.710588 25060.961685 25380.128303 25721.123258 25993.383623 26158.166448 26130.629724 25946.602075 25511.613609 24928.254878 24670.578200 24579.823796 24521.717688 24438.903196 23855.571189 23080.399909 22917.452379 23099.654430 23289.501655 23511.416384 24002.856700 24729.997497 25137.001178 25014.087956 24901.113473 25094.403789 25139.014472 25117.094174 25383.153632 25295.498573 24730.992565 24297.035234 24243.023102 24326.059822 24477.759231 24545.145492 24439.832546 24155.629117 23651.068863 23031.112538 22648.814510 22603.043813 22626.034532 22714.374498 22976.667680 23114.394802 22990.257126 22794.118766 22599.260360 22401.027144 22246.789706 22021.416394 21789.593121 21618.254332 21396.172564 21095.769609 20778.216507 20511.492203 20437.820914 20598.163296 20829.675131 21005.355145 21001.213274 20877.533875 20917.559780 21123.755915 21174.459399 21051.403519 20811.588926 20602.448758 20563.966771 20667.171236 20869.867999 20904.742154 20675.529946 20883.068806 21519.346394 21825.055529 21688.984889 21567.655658 21399.512614 21012.002344 20561.625902 20290.493829 20327.266987 20343.754436 19813.654984 18652.429647 17485.390232 16746.267574 26503.713687 25984.707848 24953.589813 23897.556499 23180.321209 22572.709633 21822.876975 21190.449662 20951.177630 21171.585322 21826.316464 22838.807360 24117.564097 25453.099917 26330.276728 26020.549346 23958.071719 21011.423874 18456.307481 17093.494641 16833.014743 17200.964177 17931.099387 18861.884640 19769.731373 20245.451219 20171.995384 19977.951175 20311.637299 21001.067242 21486.675937 21651.759853 21694.454445 21862.234410 22334.519344 22811.626954 22780.738536 22524.886220 22586.836969 22780.829799 22761.991071 22692.442620 22993.891826 23524.220593 23842.605531 23813.650361 23531.542736 23197.579009 23187.497234 23573.549395 23955.824563 24086.215540 24145.264676 24312.365225 24529.175415 24677.090976 24817.255967 25129.989004 25763.521039 26478.775320 26935.604074 27271.918384 27857.278126 28387.921091 28531.715342 28615.005559 28908.825597 28991.702066 28809.839107 28848.732766 29236.773815 29735.778170 30021.636277 29994.457036 29829.520751 29556.358756 29230.811195 29249.514791 29802.454341 30235.518522 30155.992931 30076.435484 30380.927133 30810.833400 30938.359386 30512.294295 29603.838690 28611.782629 27892.046102 27289.844021 26745.785988 26488.980907 26502.489259 26614.214521 26699.101496 26569.835324 26457.726019 26790.874587 27375.480581 27871.115433 28232.308189 28366.357425 28318.764195 28260.491529 28206.200152 28197.484223 28264.722654 28235.680622 27746.546893 27105.823530 26662.005250 26301.710879 25890.974418 25475.277869 25242.499574 25274.220036 25482.145930 25706.822483 25890.197349 25958.629488 25893.378513 25767.213493 25470.326356 25059.832038 24781.843209 24574.231928 24359.724313 24129.697798 23717.692095 23155.893839 22865.845884 23007.646099 23333.916699 23705.933939 24171.551781 24731.953339 25181.357766 25374.466916 25483.809203 25558.730825 25550.910866 25502.494029 25452.175417 25182.202587 24658.580043 24256.977185 24106.402060 24109.227746 24170.369000 24203.454635 24110.192362 23848.933213 23434.339739 22998.886880 22725.443588 22614.399293 22534.204619 22524.293684 22626.229508 22652.557679 22535.227122 22397.280729 22211.715886 22019.736040 21848.494556 21649.557714 21507.415345 21397.053294 21175.150437 20859.635165 20516.272419 20221.672493 20101.070239 20179.421783 20344.240740 20520.339070 20652.526041 20729.480993 20804.386853 20864.303628 20834.187040 20696.550330 20513.608694 20373.920580 20320.640674 20379.836263 20526.914245 20601.365754 20606.211010 20761.953214 21098.264366 21288.422225 21221.764802 21087.179880 20909.808237 20654.068706 20388.744035 20186.067166 20055.147759 19818.148742 19213.199539 18251.412565 17221.129799 16497.680407 16203.438848 18072.913910 18914.283332 19342.096658 18830.854724 18057.113175 17839.005602 17639.301078 16796.773806 15654.705785 14861.517713 14357.558663 13440.776267 11662.674375 9770.796050 8805.280184 8178.183231 6502.917670 4612.204123 3652.836585 2983.412552 2376.859044 1629.696326 1168.767667 898.065838 733.044468 635.586404 579.488984 546.002456 522.369125 500.625922 476.398287 447.865127 414.908454 378.427570 339.814255 300.578701 262.107582 225.530055 191.665161 161.025053 133.851908 110.171116 89.848319 72.642426 58.250367 46.342073 36.585874 28.665531 22.290532 17.201305 13.170865 10.004099 7.535648 5.627038 4.163528 3.050952 2.212727 1.587122 1.124819 0.786763 0.542321 0.367686 0.244548 0.158963 0.100431 0.061131 0.035310 0.018787 0.008563 0.002519 -0.000817 -0.002454 -0.003067 -0.003097 -0.002826 -0.002425 -0.001996 -0.001592 -0.001239 -0.000944 -0.000707 -0.000522 -0.000379 -0.000272 -0.000193 -0.000136 -0.000094 -0.000065 -0.000044 -0.000030 -0.000020 -0.000013 -0.000009 -0.000006 -0.000004 -0.000002 -0.000001 -0.000001 -0.000001 -0.000000 -0.000000 16746.267574 17242.918222 17843.445763 18189.174326 17891.274275 17284.182014 16879.200981 16451.499633 15710.862056 14888.003137 14110.781289 13341.549008 12332.279836 10916.591623 9510.097476 8379.366105 7310.374572 6000.168906 4632.968099 3551.749719 2731.721189 2075.927390 1535.703000 1146.712546 889.676703 728.942186 633.416255 578.415906 545.574379 522.311465 500.762938 476.611514 448.077516 415.074938 378.527070 339.842582 300.542461 262.019245 225.404262 191.516213 160.865419 133.691528 110.017256 89.705792 72.513985 58.137172 46.244131 36.502428 28.595368 22.232212 17.153325 13.131760 9.972506 7.510339 5.606933 4.147689 3.038580 2.203147 1.579772 1.119232 0.782559 0.539189 0.365380 0.242868 0.157755 0.099574 0.060532 0.034898 0.018508 0.008378 0.002400 -0.000892 -0.002499 -0.003092 -0.003110 -0.002831 -0.002426 -0.001995 -0.001590 -0.001236 -0.000942 -0.000705 -0.000520 -0.000378 -0.000271 -0.000192 -0.000135 -0.000094 -0.000064 -0.000044 -0.000030 -0.000020 -0.000013 -0.000009 -0.000006 -0.000004 -0.000002 -0.000001 -0.000001 -0.000001 -0.000000 -0.000000 -0.000000 16203.438848 16409.079799 16812.450460 17222.558228 17414.477463 17260.028034 16872.467788 16426.385716 15907.098351 15254.879564 14513.057983 13705.805503 12810.619080 11770.560511 10580.121383 9354.323881 8166.468066 6978.938566 5749.319289 4551.316453 3509.528763 2667.595963 2010.689006 1507.669374 1140.743578 890.361176 730.708876 634.840538 579.269297 545.945116 522.354143 500.621893 476.397247 447.864876 414.908396 378.427557 339.814252 300.578701 262.107582 225.530055 191.665161 161.025053 133.851908 110.171116 89.848319 72.642426 58.250367 46.342073 36.585874 28.665531 22.290532 17.201305 13.170865 10.004099 7.535648 5.627038 4.163528 3.050952 2.212727 1.587122 1.124819 0.786763 0.542321 0.367686 0.244548 0.158963 0.100431 0.061131 0.035310 0.018787 0.008563 0.002519 -0.000817 -0.002454 -0.003067 -0.003097 -0.002826 -0.002425 -0.001996 -0.001592 -0.001239 -0.000944 -0.000707 -0.000522 -0.000379 -0.000272 -0.000193 -0.000136 -0.000094 -0.000065 -0.000044 -0.000030 -0.000020 -0.000013 -0.000009 -0.000006 -0.000004 -0.000002 -0.000001 -0.000001 -0.000001 -0.000000 -0.000000 -0.000000 -0.000000 -0.000000 -0.000000 -0.000000 -0.000000 -0.000000 -0.000000 -0.000000 -0.000000 -0.000000 -0.000000 -0.000000 -0.000000 0.000000 -0.000000 -0.000000 0.000000 0.000000 0.000000 0.000000 0.000000 0.000000 0.000000 0.000000 0.000000 0.000000 0.000000 0.000000 0.000000 -0.000000 -0.000000 -0.000000 -0.000000 0.000000 0.000000 0.000000 -0.000000 -0.000000 0.000000 0.000000 0.000000 -0.000000 -0.000000 0.000000 -0.000000 0.000000 0.000000 0.000000 0.000000 0.000000 0.000000 0.000000 0.000000 0.000000 0.000000 0.000000 0.000000 0.000000 0.000000 0.000000 0.000000 0.000000 0.000000 0.000000 0.000000 0.000000 0.000000 0.000000 0.000000 -0.000000 0.000000 0.000000 0.000000 0.000000 0.000000 0.000000 0.000000 0.000000 0.000000 0.000000 0.000000 0.000000 0.000000 -0.000000 0.000000 0.000000 0.000000 0.000000 0.000000 0.000000 0.000000 0.000000 0.000000 0.000000 0.000000 0.000000 0.000000 0.000000 0.000000 -0.000000 0.000000 0.000000 -0.000000 0.000000 0.000000 0.000000 0.000000 -0.000000 -0.000000 -0.000000 -0.000000 -0.000000 -0.000000 -0.000000 -0.000000 -0.000000 -0.000000 -0.000000 -0.000000 -0.000000 -0.000000 -0.000000 -0.000000 -0.000000 -0.000000 -0.000000 -0.000000 -0.000000 -0.000000 -0.000000 0.000000 -0.000000 -0.000000 -0.000000 -0.000000 0.000000 0.000000 0.000000 -0.000000 0.000000 0.000000 0.000000 0.000000 -0.000000 0.000000 0.000000 0.000000 0.000000 0.000000 0.000000 0.000000 0.000000 0.000000 0.000000 0.000000 0.000000 -0.000000 -0.000000 -0.000000 -0.000000 -0.000000 -0.000000 -0.000000 -0.000000 -0.000000 -0.000000 -0.000000 -0.000000 -0.000000 -0.000000 -0.000000 -0.000000 -0.000001 -0.000001 -0.000001 -0.000002 -0.000004 -0.000007 -0.000011 -0.000018 -0.000028 -0.000045 -0.000072 -0.000113 -0.000177 -0.000275 -0.000425 -0.000653 -0.000997 -0.001513 -0.002281 -0.003416 -0.005084 -0.007520 -0.011057 -0.016165 -0.023522 -0.034146 -0.049710 -0.073648 -0.112921 -0.142015 -0.000000 -0.000000 -0.000000 -0.000000 -0.000000 -0.000000 -0.000000 -0.000000 -0.000000 -0.000000 -0.000000 -0.000000 -0.000000 -0.000000 0.000000 0.000000 0.000000 -0.000000 0.000000 0.000000 0.000000 0.000000 0.000000 0.000000 0.000000 0.000000 0.000000 0.000000 0.000000 0.000000 0.000000 -0.000000 0.000000 0.000000 -0.000000 0.000000 0.000000 0.000000 0.000000 -0.000000 0.000000 0.000000 0.000000 0.000000 -0.000000 0.000000 0.000000 0.000000 0.000000 0.000000 0.000000 0.000000 0.000000 0.000000 0.000000 0.000000 0.000000 0.000000 0.000000 0.000000 0.000000 0.000000 0.000000 0.000000 0.000000 0.000000 0.000000 0.000000 0.000000 -0.000000 -0.000000 0.000000 0.000000 0.000000 0.000000 -0.000000 0.000000 0.000000 0.000000 -0.000000 -0.000000 0.000000 0.000000 -0.000000 -0.000000 0.000000 0.000000 0.000000 -0.000000 0.000000 0.000000 0.000000 0.000000 -0.000000 0.000000 0.000000 0.000000 0.000000 -0.000000 -0.000000 0.000000 0.000000 0.000000 -0.000000 0.000000 0.000000 0.000000 0.000000 -0.000000 -0.000000 -0.000000 -0.000000 -0.000000 -0.000000 -0.000000 -0.000000 -0.000000 -0.000000 -0.000000 -0.000000 -0.000000 -0.000000 -0.000000 -0.000000 -0.000000 -0.000000 -0.000000 -0.000000 0.000000 -0.000000 -0.000000 -0.000000 -0.000000 0.000000 -0.000000 0.000000 0.000000 -0.000000 -0.000000 0.000000 0.000000 0.000000 -0.000000 -0.000000 0.000000 0.000000 0.000000 -0.000000 -0.000000 0.000000 0.000000 0.000000 0.000000 -0.000000 0.000000 0.000000 -0.000000 -0.000000 -0.000000 -0.000000 -0.000000 -0.000000 -0.000000 -0.000000 -0.000000 -0.000000 -0.000000 -0.000000 -0.000000 -0.000000 -0.000000 -0.000000 -0.000001 -0.000001 -0.000001 -0.000002 -0.000004 -0.000007 -0.000011 -0.000017 -0.000028 -0.000045 -0.000071 -0.000112 -0.000175 -0.000273 -0.000422 -0.000648 -0.000990 -0.001502 -0.002264 -0.003392 -0.005049 -0.007469 -0.010977 -0.016033 -0.023269 -0.033554 -0.048057 -0.068134 -0.094071 -0.114281 -0.120298 -0.000000 -0.000000 -0.000000 -0.000000 -0.000000 -0.000000 -0.000000 -0.000000 -0.000000 -0.000000 -0.000000 -0.000000 -0.000000 -0.000000 -0.000000 0.000000 0.000000 0.000000 0.000000 0.000000 0.000000 0.000000 0.000000 0.000000 0.000000 0.000000 0.000000 0.000000 0.000000 0.000000 0.000000 0.000000 0.000000 0.000000 0.000000 0.000000 0.000000 0.000000 0.000000 0.000000 0.000000 0.000000 0.000000 0.000000 0.000000 0.000000 0.000000 0.000000 0.000000 0.000000 0.000000 0.000000 0.000000 0.000000 0.000000 0.000000 0.000000 0.000000 0.000000 0.000000 0.000000 0.000000 0.000000 0.000000 0.000000 0.000000 0.000000 0.000000 0.000000 0.000000 -0.000000 0.000000 0.000000 0.000000 0.000000 0.000000 0.000000 0.000000 0.000000 0.000000 0.000000 -0.000000 0.000000 0.000000 -0.000000 0.000000 0.000000 0.000000 0.000000 0.000000 0.000000 0.000000 0.000000 0.000000 -0.000000 0.000000 0.000000 0.000000 0.000000 -0.000000 -0.000000 0.000000 0.000000 0.000000 0.000000 0.000000 0.000000 0.000000 -0.000000 -0.000000 -0.000000 -0.000000 -0.000000 -0.000000 -0.000000 -0.000000 -0.000000 -0.000000 -0.000000 -0.000000 -0.000000 -0.000000 -0.000000 -0.000000 -0.000000 -0.000000 -0.000000 -0.000000 0.000000 0.000000 0.000000 -0.000000 0.000000 0.000000 0.000000 0.000000 0.000000 0.000000 0.000000 -0.000000 -0.000000 -0.000000 0.000000 0.000000 -0.000000 -0.000000 -0.000000 0.000000 0.000000 -0.000000 0.000000 0.000000 0.000000 0.000000 -0.000000 0.000000 0.000000 -0.000000 -0.000000 -0.000000 -0.000000 -0.000000 -0.000000 -0.000000 -0.000000 -0.000000 -0.000000 -0.000000 -0.000000 -0.000000 -0.000000 -0.000000 -0.000000 -0.000001 -0.000001 -0.000001 -0.000002 -0.000004 -0.000007 -0.000011 -0.000018 -0.000028 -0.000045 -0.000072 -0.000113 -0.000177 -0.000275 -0.000425 -0.000653 -0.000997 -0.001513 -0.002281 -0.003415 -0.005082 -0.007514 -0.011036 -0.016096 -0.023290 -0.033359 -0.047052 -0.064574 -0.084097 -0.100953 -0.108185 -0.108869 -0.142015 -0.219500 -0.382263 -0.575374 -0.816108 -1.126318 -1.529496 -2.053751 -2.733302 -3.609792 -4.733619 -6.165302 -7.976866 -10.253208 -13.093365 -16.611614 -20.938290 -26.220208 -32.620544 -40.318016 -49.505197 -60.385767 -73.170502 -88.071823 -105.296706 -125.037832 -147.462897 -172.702154 -200.834417 -231.871995 -265.745334 -302.288387 -341.226033 -382.164928 -424.589063 -467.860892 -511.228043 -553.834479 -594.733632 -632.900451 -667.241346 -696.608143 -719.836470 -735.857275 -743.978553 -744.458002 -739.324993 -732.629331 -727.688679 -719.584826 -705.176460 -715.510656 -701.286796 -677.949052 -832.168084 -770.599830 -537.366597 -6.325907 -29.212427 -624.866427 -2182.041881 -3828.858989 -3754.002764 -2329.417217 -1537.599089 -1585.757152 -1805.781170 -1940.046702 -1558.749301 -668.223375 -687.323749 -1410.690746 -2009.455829 -2209.359022 -1228.129294 -660.253320 -522.272669 -23.510976 479.281086 1102.769581 2186.054301 3647.451933 4770.827373 5988.778023 6602.718890 7306.044619 7900.774946 8379.136177 9256.758827 10277.436528 11153.850231 11430.097693 11733.891936 12472.406229 14403.658954 15780.735279 15925.520925 15355.734784 16643.549820 19652.245462 22116.597649 -0.120298 -0.155807 -0.244274 -0.389546 -0.575325 -0.813592 -1.122305 -1.524085 -2.046754 -2.724406 -3.598606 -4.719684 -6.148092 -7.955793 -10.227624 -13.062571 -16.574872 -20.894840 -26.169295 -32.561444 -40.250081 -49.427901 -60.298762 -73.073686 -87.965413 -105.181321 -124.914575 -147.333441 -172.568816 -200.700209 -231.740647 -265.621259 -302.176598 -341.131986 -382.094304 -424.547508 -467.853747 -511.260126 -553.909982 -594.856173 -633.073237 -667.467142 -696.888490 -720.168965 -736.227196 -744.341124 -744.718069 -739.342855 -732.438462 -728.514298 -726.307882 -715.741163 -700.526038 -686.926416 -633.544066 -550.979094 -381.193077 -89.788949 24.641325 -265.422933 -868.378665 -1791.164160 -2786.394099 -3217.192496 -2854.271032 -2436.381875 -2223.535811 -1845.372416 -1493.288674 -1306.175305 -1157.022967 -1211.168970 -1378.704618 -1502.234132 -1428.026836 -918.510912 -259.761831 122.758544 586.839289 1296.076267 2057.039559 2968.776947 4242.903243 5507.126493 6484.415581 7248.431131 8035.521167 8759.287827 9582.870708 10561.752609 11492.992025 12333.465352 12769.894455 13280.414986 14632.464639 16519.019844 18016.242906 18369.521255 18051.846721 18926.562483 21166.713648 23547.811454 25237.904593 -0.108869 -0.122174 -0.168024 -0.261245 -0.397393 -0.579732 -0.817405 -1.126702 -1.529609 -2.053785 -2.733312 -3.609795 -4.733620 -6.165302 -7.976866 -10.253208 -13.093365 -16.611614 -20.938290 -26.220208 -32.620544 -40.318016 -49.505197 -60.385767 -73.170502 -88.071823 -105.296706 -125.037832 -147.462897 -172.702154 -200.834417 -231.871995 -265.745334 -302.288387 -341.226033 -382.164928 -424.589064 -467.860893 -511.228045 -553.834483 -594.733643 -632.900481 -667.241472 -696.608739 -719.838290 -735.858745 -743.969211 -744.411215 -739.197298 -732.582293 -729.456049 -730.402575 -727.079178 -706.875950 -662.988204 -579.914454 -440.057288 -267.574791 -126.768882 -180.825190 -489.783239 -1024.306873 -1720.884362 -2385.504287 -2767.813424 -2773.360003 -2589.305289 -2272.915630 -1814.151944 -1407.472907 -1221.769616 -1223.162741 -1303.169099 -1386.586411 -1370.250512 -1149.294169 -663.992681 2.050420 665.542175 1343.567731 2108.555877 2924.775302 3828.900997 4866.712072 5917.422192 6810.640361 7602.683697 8398.903399 9254.184360 10216.866450 11201.427206 12155.118975 13067.820259 13945.189922 15022.090675 16460.090685 17935.263175 19014.639853 19489.525218 19771.594327 20648.868729 22342.353758 24337.877846 25849.032505 26503.713687 7889.187525 3927.737321 6845.620340 5924.326729 7133.954079 6771.108283 7808.135448 6852.015369 8993.863286 9485.132841 10690.871427 8868.115457 7149.093744 10604.726816 12306.922137 12677.326481 13816.520251 14308.816098 12794.319045 19557.983382 6438.538751 5872.948403 6007.381510 6398.209577 7073.506593 5391.442465 6664.352302 6986.061149 6435.528352 10940.478889 7021.024864 10298.593606 12593.612663 10976.334515 10584.068167 13815.297380 13022.268413 13568.783825 14001.853247 15933.991431 8129.008982 6103.402310 5915.288823 6013.183567 5344.203439 8452.317574 5902.852210 6929.437944 7228.909885 9525.763616 10062.180161 10422.682974 6895.522624 13894.282900 13200.989142 15805.260441 13517.473535 13419.387292 15633.552454 15265.540948 5588.494685 11554.662625 -26162.910587 7721.678869 13216.533174 5328.988548 8489.004850 9016.893875 9546.945174 12756.413579 12561.248050 15263.867888 10263.943512 11830.777196 15499.243535 13963.243332 9906.331026 14666.035212 13855.951708 15914.766990 24942.824288 6374.775110 9059.723240 8636.933014 6107.625848 16267.272785 -38139.617122 -29440.032736 8935.567433 9115.034252 10680.170891 6528.023509 9532.419633 12742.934671 12144.676143 12705.107419 12726.300122 5974.837178 16378.213849 16418.421407 3165.436108 14608.804965 3465.821501 6977.260608 -25636.114396 1758.964551 5559.462409 2498.990667 11357.197330 12280.359329 19821.542306 19745.154512 13127.264309 8406.238651 14743.426199 16678.933885 13223.656878 16642.208657 18504.414606 13677.114390 2818.387136 11203.642755 14255.536747 9840.769966 13359.969917 12218.451861 3680.084715 7247.466426 11562.912995 -6299.857197 20671.054115 7006.782377 2715.781055 16660.172727 22166.190664 13765.567628 19453.583430 15199.934316 17867.282393 17072.045440 -46755.892996 8966.312190 -37007.074332 4059.471736 6575.164055 -43802.170336 5315.549214 13703.754532 17038.334194 -16477.707854 8565.831434 8219.575581 16973.566262 9581.276867 -42500.864945 15170.478594 21854.785670 13272.509840 23161.700802 19196.236112 3951.539152 -878.037136 6142.720664 6309.742080 -27449.494573 8271.811405 10704.571353 13376.462126 17823.134918 7842.431276 15702.630987 13267.661828 20410.195526 13764.664794 25610.888267 9036.600728 13691.321898 14495.235949 20618.145281 17327.631465 23051.884600 17693.998026 9471.687911 10156.641829 7239.383147 -29197.590384 7933.167920 -46256.913819 6593.897298 4991.565595 -36439.398631 -25130.102368 14334.790740 28001.554024 5292.453919 28145.266913 -27120.183706 19900.610288 13523.392584 30565.743251 -9616.422555 -30944.636482 -41036.696159 4127.886071 5122.529755 6729.942942 23031.414334 9053.319875 -33162.500673 -12823.167780 13808.410554 13347.791441 14641.778081 14124.168877 12158.080347 25214.923696 -5542.171168 7412.546686 16370.923989 13476.207250 9611.687943 9166.182925 -40608.359352 10392.762660 -23181.400454 5303.795858 3544.424979 9816.072160 11706.225133 14325.100310 12759.457587 5090.930576 13395.247383 7018.527319 10882.982665 13553.105525 25688.853314 15783.904572 13736.383892 16135.704825 -37528.399735 15648.642655 6465.023134 7669.268477 18772.348230 -38870.749725 8003.499759 8891.865698 8779.329928 4005.927479 3384.576176 12227.600953 12026.788672 10171.938438 10281.984441 20495.024355 31447.502655 8539.741921 17512.264054 13868.571781 4828.761200 15450.055141 9271.561516 11076.634956 -27264.797833 7560.875077 5097.053242 8696.684656 5836.121312 3391.904079 9045.710288 7627.832064 19001.051643 17188.869767 7633.629427 16087.759018 14171.610693 17238.973419 -18301.115793 23171.978879 3509.739546 9254.183703 8775.482529 2711.525200 10105.588991 6808.077323 5928.733250 2772.723414 9185.030115 3545.922139 9079.701949 10797.985524 10092.047171 5772.325582 6279.601180 17110.995328 17439.474036 17324.569978 16993.337873 15738.490266 6476.046182 3306.826273 4847.922219 1358.029808 8993.912593 13110.875221 11214.600382 11691.604884 3279.939761 9835.396276 14659.314658 12710.998682 17386.168452 16268.198098 14156.804576 17498.303356 18007.939163 18199.755468 14764.523004 14184.195363 11138.504644 15599.020913 9103.055623 14683.429664 2503.028360 -40932.370092 6670.632297 7051.089843 8829.666901 10907.483316 19153.429127 13227.868086 17861.135933 16620.936384 16925.952998 21148.607486 13500.391127 14894.315191 21307.610562 25358.183044 12883.054194 7733.851854 9787.131287 9465.626624 9885.015227 3533.048065 9425.209254 11072.531635 5332.186366 11050.859157 14823.449512 19903.883502 14296.184292 20500.788205 16465.474166 18603.619068 14422.600347 14727.059607 15953.566123 25407.325803 10293.041361 11795.905823 2861.129273 9606.465531 12094.573315 13429.444192 16493.648550 16297.465607 15440.472342 15274.017406 16991.473521 18408.166210 14692.091584 14014.012084 13939.506924 18239.935560 15355.290120 21598.558887 17241.628810 12432.799816 11896.423358 9256.213533 8442.897032 10409.757428 13030.981498 14001.762070 13007.432915 14685.170577 11785.527407 16296.854117 19842.362288 18517.289119 18238.664954 18182.139024 18171.670580 17284.494932 15428.839548 13124.544879 21347.040469 14037.849043 10396.645022 14644.554991 10946.453881 9533.315539 15096.609059 11200.342439 15162.120645 16380.037273 12548.901958 15912.642811 18755.006442 16694.761293 17765.838530 18229.772631 18433.289319 18224.847586 18083.059458 17979.434733 17012.767765 13948.870459 10589.782270 12769.160071 10873.122056 10681.890558 13661.991730 12542.212611 16549.130762 11865.082340 17789.656818 15057.076383 16922.168610 13909.768204 16446.971143 20686.120954 17419.126855 20440.513901 18434.786743 17269.111550 14697.680149 15503.639317 12954.036580 10275.834341 10663.532696 13121.559316 11421.471496 13523.887400 12153.205523 17192.864303 11787.311127 15957.165526 17122.355610 18031.012443 19292.116835 20278.103513 18725.088633 20393.020577 17807.675614 19615.455365 13121.323829 20253.684848 11256.875757 11332.263912 15557.028190 7522.871216 8169.359699 10838.703833 14058.990002 15291.500291 17902.867649 18222.253632 14371.284359 17036.316002 19284.653170 17550.993892 19668.986218 19943.658992 18937.909055 19501.925097 18368.195885 15821.040105 12263.987642 9790.185559 12661.090121 8499.803460 11144.001482 13398.984794 16728.078790 13396.932708 18911.306323 15749.346316 19435.781625 18877.630317 19764.396406 17797.962524 19677.411484 17704.472504 19421.823231 21056.773719 19089.962355 22893.366064 9485.294541 17111.911081 17271.887485 12194.402173 15947.050892 16010.486687 13089.502550 20546.624825 10151.364116 19070.053896 18284.829572 19422.205183 20825.368114 20793.805654 19437.728687 20293.170559 20423.663800 20268.583571 19775.250924 21046.475395 14926.473365 12009.974858 7829.936912 9760.367967 6841.978774 14258.345841 12985.579681 15758.212241 17771.900011 20022.148592 20822.712267 19711.431138 20370.183182 21642.156067 19267.179426 19084.275274 20459.266752 19975.255151 18029.627581 18136.822156 9803.809943 7144.131817 9596.058765 7884.327363 7873.068515 10831.303294 12856.755984 17720.462301 13711.111530 20329.313964 21152.661092 20796.071668 15708.600645 20231.512135 21606.154247 20094.941710 21088.975159 20463.194415 22932.321012 21110.624115 6539.406370 8834.461559 3545.783312 10646.653685 11094.747674 13769.400859 16007.491223 13500.544459 14585.661820 18401.504411 13657.998612 14598.744750 19831.639210 21316.398831 20511.569961 18982.246121 20420.098394 19090.092722 20473.259573 20052.627199 700.201829 8549.668656 7433.129750 9460.826551 8431.150406 10068.843712 10252.753678 13587.460651 18681.547643 17597.737811 10465.116858 19095.414525 18645.242597 21687.542594 18627.833804 20984.725454 21042.493264 19859.725534 16789.720906 18867.121794 -384.323973 4856.789888 1001.730065 7017.245060 9584.007632 11866.262915 9777.373538 9138.041379 12326.314122 19253.557860 17066.660767 17677.634765 17050.137775 18844.680348 20853.816069 20497.845071 22816.966209 21685.622683 20778.424085 18805.998584 1689.765522 2082.668274 2111.601812 6013.530691 5746.890578 5807.214384 15499.535233 8645.503893 13839.188179 14735.060735 16558.044221 11655.743870 15705.428755 19709.394774 19701.828050 20877.332673 23621.972575 20147.795041 18112.064987 22647.933072 826.309159 1272.896745 1227.919775 4059.275713 5283.951756 11853.165258 7159.735243 7996.613649 14340.022945 17586.253300 16643.504429 19420.792086 22248.020749 20292.729367 22013.944992 22278.774895 22258.896664 20914.309418 21165.524256 20205.959332 643.516071 4562.805968 3454.140109 3517.013130 4976.959894 10256.472225 10352.213631 13651.910287 13764.503312 13272.099320 16043.066472 20883.728231 17229.055150 19575.263222 20991.473865 21096.174092 20504.711194 20086.443040 21525.699071 21971.154713 1695.620312 574.709145 1377.175745 4757.098558 4350.535225 9770.482612 6571.674884 7050.500064 18476.689341 19579.850362 21430.770415 22872.656064 16026.140064 21877.997962 23300.054549 25316.899691 21882.339946 24682.648130 21346.395957 20831.405006 1908.342893 2030.862203 1815.931876 5435.171872 5165.898030 8611.389729 9372.294484 8553.949058 9763.861326 13688.493113 18603.007840 19359.027315 22970.957360 21458.930533 21060.820173 24309.387076 23366.634977 24517.87