<VTKFile type="PolyData">
<PolyData>
<Piece NumberOfPoints="6715" NumberOfVerts="6715" NumberOfLines="0" NumberOfStrips="0" NumberOfPolys="0">
<PointData>
<DataArray type="Float64" Name="Pressure" format="ascii">
 2360.297833 1255.827886 565.058625 998.476110 1754.135440 2520.816903 3313.244733 3885.425093 4144.788985 4337.019709 4074.929835 3504.814205 3323.770222 2297.106527 -728.014845 -6756.177913 -16543.948383 -27560.486824 -31414.318237 -24245.244174 -11390.090247 1107.141933 5488.261309 4071.091071 2796.896075 3548.465224 5561.325552 7072.830683 7641.718424 7896.028990 8010.560246 8171.857841 8382.223443 8553.843804 8803.980474 9177.162770 9453.371474 9567.635379 9654.132223 9997.179572 10796.383694 12044.481286 13544.468027 14645.648963 14910.673817 15056.341371 15287.683010 15475.537665 15605.237903 15692.653383 16152.910203 16750.505732 17285.192435 17735.943489 17895.712187 17581.481318 17041.007994 16904.162042 17260.843191 17433.597062 17409.934148 17578.054181 17871.441151 18081.349451 18231.688557 18410.896926 18554.312581 18717.791538 18925.122531 19225.758020 19423.639237 19286.537498 18802.979974 18466.285829 18521.810806 18624.289714 18704.834077 18898.929835 19204.046768 19538.554767 19811.280600 19966.078561 20169.093043 20500.922329 20832.220393 21052.648029 21032.756275 20898.247789 20855.626414 21143.516800 21616.389178 22191.080082 22668.839285 22879.048747 22810.756327 22609.844011 22418.229094 22318.750226 22377.305742 22553.530599 22816.255623 22883.517376 23002.750386 23298.208862 23701.805728 24009.866656 24394.022032 25055.389557 25530.868539 25380.693586 24453.237696 23643.544675 23080.147427 22738.494884 22718.191343 22876.898103 22970.002593 22825.595091 22558.269427 22353.012971 22315.056331 22448.542210 22683.434300 22973.002140 23096.409284 22823.619455 22325.277623 22182.759687 22539.440711 22649.358225 22464.436700 22336.768952 22183.124870 22021.881296 22213.233440 22531.146965 22384.027846 21952.694502 21470.948206 21011.075547 20634.521174 20373.196169 20321.768044 20314.254948 20144.061068 20111.398853 20338.740030 20593.636372 20933.707018 21004.724709 20715.574685 20340.584222 20060.612986 19966.894456 19901.234688 19811.652771 19670.923955 19607.254442 19723.885309 19947.794848 20008.533904 19852.766661 19531.871389 19324.072117 19173.008670 18820.714333 18415.333935 18074.528117 17890.551860 17791.416140 17741.553476 17615.257384 17395.426831 17248.019044 17215.429655 17270.232041 17182.042216 16985.027083 16790.822454 16653.962065 16542.463999 16397.147447 16217.234359 15977.303107 15634.472905 15291.761541 14976.622618 14836.287890 14859.938854 14899.964144 14844.981459 14718.444485 14511.312691 14220.955767 13843.773185 13604.273347 13475.265864 13369.436501 13222.647733 13047.428147 12985.168655 3527.344120 2840.242909 1869.548288 1169.751121 1217.041374 1687.073643 2295.468835 3004.615740 3679.449044 4142.787301 4389.346112 4385.470885 4289.384799 4810.360443 5807.226432 4471.677236 -615.439936 -8508.427474 -18025.375093 -19790.779025 -13046.712180 -4378.012170 2063.752185 3671.684861 3285.123340 3542.742697 4673.456285 5982.392977 6893.584794 7438.298238 7838.812718 8189.413763 8604.642901 9053.606227 9425.777195 9644.563686 9846.009668 10022.620001 10131.975075 10279.218368 10623.290946 11279.225025 12319.390726 13561.802079 14488.920554 14949.181617 15214.793149 15459.058071 15728.235496 15928.506116 16107.592695 16490.466667 17044.971440 17549.254794 17829.864886 17864.903077 17601.683026 17168.128745 17057.705061 17353.697843 17688.731951 17849.317203 17942.776399 18039.881940 18127.908556 18252.303440 18399.385272 18538.272439 18710.731086 18972.629895 19271.055608 19442.721313 19336.183257 19053.656174 18833.937685 18791.567912 18816.932207 18867.229896 19011.170882 19303.663841 19664.251611 19982.831313 20233.368045 20498.603016 20794.681369 21060.606059 21186.888861 21118.359757 21045.601345 21151.317907 21506.024337 21976.271013 22457.797215 22819.271139 22975.903684 22906.481966 22704.958080 22518.297300 22456.684496 22573.197634 22773.659938 22874.613063 22888.016876 22946.343882 23194.406421 23577.154506 23916.527801 24287.543847 24765.363978 25079.254061 24867.941382 24238.471413 23551.291363 22839.682054 22382.292978 22270.757002 22398.093897 22534.659766 22523.176119 22357.141821 22162.094023 22120.200575 22235.013144 22425.920214 22618.259553 22700.267478 22508.949642 22167.113024 22242.020852 22570.002682 22628.191708 22379.489129 22108.869159 21854.882475 21697.126200 21885.694848 22131.888107 21986.900216 21531.173430 21102.491146 20774.496225 20482.101430 20297.516702 20244.014485 20215.625026 20172.663217 20212.837951 20402.302070 20657.092109 20817.523452 20822.685031 20591.813802 20236.576414 19970.921169 19831.448602 19765.742181 19749.362186 19727.443160 19701.450095 19763.129945 19861.966379 19855.347462 19675.526766 19432.222477 19259.928306 19057.864324 18749.090652 18384.944191 18063.738932 17847.328608 17688.202544 17565.927357 17444.856797 17320.748859 17247.464014 17234.359641 17233.203661 17154.822234 17009.657405 16857.125585 16749.574676 16665.063615 16541.867216 16357.427170 16097.313316 15770.163502 15437.997247 15164.146473 15008.040280 14981.707001 15008.180171 14959.512149 14818.624881 14618.210356 14350.588282 14055.771424 13852.124564 13723.642520 13611.022278 13442.008101 13266.262417 13199.979130 13234.057289 4083.144921 3795.094925 3093.706987 2205.604641 1579.329165 1447.227856 1733.377647 2238.129519 2847.348442 3415.644847 3900.453101 4205.685871 4242.531305 4344.370565 5286.278723 7390.511367 8859.119158 6758.344527 1448.657381 -4713.819059 -6540.567433 -3477.948841 356.194309 2265.875975 2648.686193 3034.218227 3910.974993 5025.589898 6020.421601 6772.837408 7334.578802 7811.109541 8296.912752 8813.534112 9309.785373 9695.577876 9969.883350 10192.137278 10377.247511 10528.155054 10708.155939 11049.197906 11685.123789 12607.411589 13621.531577 14431.188876 14925.774132 15233.632663 15529.171010 15808.954799 16027.518156 16277.373800 16649.105129 17112.359178 17532.733625 17796.939893 17822.615138 17596.619256 17305.318801 17247.487914 17469.652579 17775.819985 17974.471169 18052.437884 18099.621464 18167.221901 18263.519309 18375.348993 18509.789370 18682.631009 18923.451212 19176.610583 19320.570529 19275.048890 19101.673702 18949.163099 18888.788553 18892.607132 18940.546308 19079.312813 19341.476815 19687.916073 20034.594243 20346.349163 20643.565938 20939.076706 21168.701768 21266.343830 21255.970800 21260.091248 21423.979249 21760.196660 22193.132827 22600.732674 22881.148461 22986.848230 22913.468921 22732.264825 22578.969662 22540.416198 22620.847380 22751.725893 22832.311809 22863.499822 22952.612812 23192.487576 23522.203071 23863.640300 24224.495600 24575.603405 24778.934004 24627.896671 24127.818858 23480.247371 22848.233748 22396.175913 22210.616673 22242.782713 22334.495053 22350.665252 22263.646646 22142.380672 22093.026024 22148.877984 22279.061060 22417.290431 22449.048142 22321.906339 22183.017496 22271.738138 22472.587037 22495.476636 22262.729916 21939.603177 21666.188701 21542.901434 21627.141168 21740.521230 21629.004658 21284.303627 20908.115162 20615.020764 20396.753891 20249.231940 20187.449062 20172.421634 20189.392900 20272.984212 20428.798270 20618.595955 20735.321725 20692.825379 20478.675538 20191.531152 19939.889108 19784.454811 19725.051892 19713.285566 19716.473364 19723.169894 19757.930869 19796.894584 19755.653749 19602.287143 19404.531291 19217.274966 19002.100070 18705.861849 18369.012366 18061.183042 17816.472156 17634.606115 17482.380078 17372.482579 17282.105535 17234.775865 17229.702066 17218.509906 17143.847336 17018.960892 16891.512280 16789.417546 16689.212289 16556.286111 16368.118095 16119.943870 15827.208518 15526.895344 15271.719315 15111.455469 15053.094898 15039.832486 14982.008505 14844.805855 14652.065043 14409.463730 14158.512517 13955.694177 13812.189067 13675.059805 13516.665711 13380.267881 13312.325863 13329.108468 13360.615952 12985.168655 12649.422187 12265.326858 12013.368916 11800.948735 11534.843491 11126.285550 10572.215140 9913.635662 9278.793776 8678.431286 7985.343565 7302.538614 6737.444220 6264.100351 5810.966176 5516.793528 5218.957874 4985.815125 4731.873382 4731.999202 4809.123117 4797.623914 4748.653668 4681.837877 4517.528710 4313.971349 4082.579613 3838.745712 3591.869253 3348.752843 3114.418321 2892.205444 2684.053478 2490.801106 2312.477134 2148.551356 1998.140155 1860.166666 1733.479094 1616.933040 1509.444648 1410.021385 1317.776560 1231.932681 1151.817618 1076.856521 1006.561561 940.520859 878.387511 819.869200 764.718723 712.725557 663.708525 617.509529 573.988325 533.018230 494.482694 458.272619 424.284331 392.418102 362.577119 334.666828 308.594554 284.269338 261.601927 240.504877 220.892710 202.682108 185.792120 170.144351 155.663135 142.275677 129.912162 118.505827 107.993007 98.313139 89.408746 81.225391 73.711617 66.818865 60.501376 54.716093 49.422547 44.582742 40.161039 36.124035 32.440446 29.080993 26.018285 23.226708 20.682315 18.362713 16.246924 14.315185 12.548485 10.927266 9.427409 8.001355 6.601748 5.862438 13234.057289 13019.210704 12655.651297 12282.492045 12014.353018 11770.875140 11461.015845 11043.178260 10526.310300 9943.338687 9340.684493 8743.951094 8122.085565 7508.997564 6958.051924 6489.199290 6082.128327 5760.914614 5478.593954 5245.859192 5054.426016 4973.334097 4944.649816 4892.525478 4818.567039 4695.699816 4524.449613 4316.112213 4083.357025 3838.993489 3591.752493 3348.392050 3113.898198 2891.593595 2683.400698 2490.144434 2311.842152 2147.954314 1997.590036 1859.667076 1733.029890 1616.531649 1509.087086 1409.702993 1317.492513 1231.678313 1151.588616 1076.649025 1006.372199 940.346750 878.226235 819.718759 764.577497 712.592254 663.582131 617.389266 573.873606 532.908621 494.377879 458.172373 424.188494 392.326557 362.489779 334.583622 308.515415 284.194197 261.530713 240.437508 220.829093 202.622143 185.735696 170.091347 155.613425 142.229128 129.868638 118.465190 107.955117 98.277858 89.375935 81.194918 73.683351 66.792678 60.477146 54.693704 49.401886 44.563703 40.143520 36.107939 32.425684 29.067478 26.005937 23.215455 20.672095 18.353489 16.238735 14.308302 12.543942 10.928652 9.446958 8.089168 6.872772 6.064385 5.729168 13360.615952 13267.985795 13024.617865 12670.053946 12321.012400 12018.836310 11735.831364 11408.266317 10993.482270 10493.915270 9942.530880 9368.035029 8778.432426 8179.954901 7599.915688 7070.131070 6608.457161 6213.907767 5886.510949 5610.126986 5380.208905 5204.148735 5093.768353 5023.052212 4947.707657 4845.183329 4705.007970 4527.171552 4315.999052 4083.022443 3838.897642 3591.914641 3348.767351 3114.422021 2892.206268 2684.053640 2490.801121 2312.477130 2148.551353 1998.140153 1860.166665 1733.479094 1616.933040 1509.444648 1410.021385 1317.776560 1231.932681 1151.817618 1076.856521 1006.561561 940.520859 878.387511 819.869200 764.718723 712.725557 663.708525 617.509529 573.988325 533.018230 494.482694 458.272619 424.284331 392.418102 362.577119 334.666828 308.594554 284.269338 261.601927 240.504877 220.892710 202.682108 185.792120 170.144351 155.663135 142.275677 129.912162 118.505827 107.993007 98.313139 89.408746 81.225391 73.711617 66.818865 60.501376 54.716093 49.422547 44.582742 40.161039 36.124035 32.440446 29.080994 26.018289 23.226720 20.682354 18.362840 16.247341 14.316547 12.552943 10.941859 9.474985 8.160508 7.045889 6.210664 5.781167 5.656191 5.862438 5.397902 4.661053 4.073155 3.578809 3.147221 2.766388 2.429370 2.131078 1.867263 1.634191 1.428525 1.247266 1.087714 0.947447 0.824286 0.716282 0.621687 0.538941 0.466650 0.403572 0.348603 0.300759 0.259171 0.223065 0.191758 0.164646 0.141197 0.120942 0.103467 0.088410 0.075453 0.064316 0.054757 0.046562 0.039545 0.033545 0.028421 0.024050 0.020326 0.017158 0.014466 0.012181 0.010245 0.008606 0.007220 0.006050 0.005063 0.004232 0.003533 0.002946 0.002453 0.002040 0.001695 0.001406 0.001165 0.000964 0.000797 0.000658 0.000542 0.000447 0.000367 0.000302 0.000247 0.000203 0.000166 0.000135 0.000110 0.000090 0.000073 0.000059 0.000048 0.000039 0.000031 0.000025 0.000020 0.000016 0.000012 0.000009 0.000006 0.000004 0.000002 0.000000 -0.000002 -0.000004 -0.000006 -0.000008 -0.000011 -0.000014 -0.000018 -0.000023 -0.000028 -0.000035 -0.000043 -0.000053 -0.000065 -0.000079 -0.000097 -0.000118 -0.000143 -0.000174 -0.000211 -0.000255 -0.000309 -0.000373 -0.000450 -0.000542 -0.000653 -0.000784 -0.000941 -0.001128 -0.001351 -0.001615 -0.001929 -0.002300 -0.002739 -0.003258 -0.003871 -0.004592 -0.005441 -0.006439 -0.007609 -0.008981 -0.010586 -0.012462 -0.014652 -0.017204 -0.020174 -0.023627 -0.027635 -0.032280 -0.037658 -0.043875 -0.051053 -0.059327 -0.068854 -0.079807 -0.092382 -0.106801 -0.123310 -0.142187 -0.163742 -0.188321 -0.216308 -0.248134 -0.284274 -0.325256 -0.371666 -0.424147 -0.483413 -0.550248 -0.625513 -0.710152 -0.805202 -0.911792 -1.031157 -1.164640 -1.313700 -1.479921 -1.665018 -1.870842 -2.099391 -2.352813 -2.633415 -2.943671 -3.286223 -3.663894 -4.079687 -4.536790 -5.038585 -5.588646 -6.190741 -6.848837 -7.567095 -8.349870 -9.201708 -10.127341 -11.131678 -12.219803 -13.396956 -14.668524 -16.040030 -17.517108 -19.105491 -20.810984 -22.639440 -24.596736 -26.688743 -28.921289 -31.300136 -33.830938 -36.519222 -39.370396 -42.389857 -45.583460 -48.959139 -52.532397 -56.344295 -60.541125 -65.364820 -68.228921 5.729168 5.574161 5.158383 4.585824 4.050522 3.570429 3.143244 2.763885 2.427452 2.129461 1.865849 1.632939 1.427413 1.246277 1.086837 0.946668 0.823597 0.715672 0.621148 0.538465 0.466230 0.403203 0.348278 0.300475 0.258921 0.222846 0.191567 0.164480 0.141052 0.120815 0.103357 0.088315 0.075370 0.064245 0.054695 0.046509 0.039499 0.033505 0.028387 0.024020 0.020301 0.017136 0.014447 0.012165 0.010231 0.008594 0.007210 0.006041 0.005056 0.004226 0.003528 0.002942 0.002450 0.002037 0.001692 0.001404 0.001163 0.000963 0.000796 0.000657 0.000542 0.000446 0.000367 0.000301 0.000247 0.000202 0.000166 0.000135 0.000110 0.000090 0.000073 0.000059 0.000048 0.000039 0.000031 0.000025 0.000020 0.000016 0.000012 0.000009 0.000006 0.000004 0.000002 0.000000 -0.000002 -0.000004 -0.000006 -0.000008 -0.000011 -0.000014 -0.000018 -0.000023 -0.000028 -0.000035 -0.000043 -0.000053 -0.000065 -0.000079 -0.000096 -0.000117 -0.000143 -0.000173 -0.000210 -0.000255 -0.000308 -0.000372 -0.000449 -0.000541 -0.000652 -0.000783 -0.000940 -0.001127 -0.001349 -0.001613 -0.001926 -0.002297 -0.002736 -0.003254 -0.003866 -0.004587 -0.005435 -0.006431 -0.007600 -0.008970 -0.010574 -0.012448 -0.014636 -0.017185 -0.020153 -0.023602 -0.027606 -0.032247 -0.037620 -0.043832 -0.051003 -0.059270 -0.068789 -0.079733 -0.092298 -0.106706 -0.123202 -0.142065 -0.163604 -0.188165 -0.216134 -0.247938 -0.284054 -0.325009 -0.371389 -0.423838 -0.483069 -0.549864 -0.625086 -0.709678 -0.804676 -0.911210 -1.030514 -1.163930 -1.312918 -1.479061 -1.664074 -1.869807 -2.098257 -2.351574 -2.632063 -2.942198 -3.284622 -3.662156 -4.077803 -4.534752 -5.036384 -5.586273 -6.188187 -6.846093 -7.564152 -8.346720 -9.198341 -10.123749 -11.127855 -12.215740 -13.392647 -14.663963 -16.035211 -17.512027 -19.100145 -20.805369 -22.633557 -24.590584 -26.682323 -28.914604 -31.293186 -33.823716 -36.511694 -39.362427 -42.380991 -45.572182 -48.940444 -52.489611 -56.221237 -60.116750 -64.039118 -66.811191 -67.899490 5.656191 5.611359 5.416764 5.021267 4.534499 4.035004 3.567124 3.143652 2.765297 2.429036 2.130976 1.867232 1.634182 1.428523 1.247265 1.087714 0.947447 0.824286 0.716282 0.621687 0.538941 0.466650 0.403572 0.348603 0.300759 0.259171 0.223065 0.191758 0.164646 0.141197 0.120942 0.103467 0.088410 0.075453 0.064316 0.054757 0.046562 0.039545 0.033545 0.028421 0.024050 0.020326 0.017158 0.014466 0.012181 0.010245 0.008606 0.007220 0.006050 0.005063 0.004232 0.003533 0.002946 0.002453 0.002040 0.001695 0.001406 0.001165 0.000964 0.000797 0.000658 0.000542 0.000447 0.000367 0.000302 0.000247 0.000203 0.000166 0.000135 0.000110 0.000090 0.000073 0.000059 0.000048 0.000039 0.000031 0.000025 0.000020 0.000016 0.000012 0.000009 0.000006 0.000004 0.000002 0.000000 -0.000002 -0.000004 -0.000006 -0.000008 -0.000011 -0.000014 -0.000018 -0.000023 -0.000028 -0.000035 -0.000043 -0.000053 -0.000065 -0.000079 -0.000097 -0.000118 -0.000143 -0.000174 -0.000211 -0.000255 -0.000309 -0.000373 -0.000450 -0.000542 -0.000653 -0.000784 -0.000941 -0.001128 -0.001351 -0.001615 -0.001929 -0.002300 -0.002739 -0.003258 -0.003871 -0.004592 -0.005441 -0.006439 -0.007609 -0.008981 -0.010586 -0.012462 -0.014652 -0.017204 -0.020174 -0.023627 -0.027635 -0.032280 -0.037658 -0.043875 -0.051053 -0.059327 -0.068854 -0.079807 -0.092382 -0.106801 -0.123310 -0.142187 -0.163742 -0.188321 -0.216308 -0.248134 -0.284274 -0.325256 -0.371666 -0.424147 -0.483413 -0.550248 -0.625513 -0.710152 -0.805202 -0.911792 -1.031157 -1.164640 -1.313700 -1.479921 -1.665018 -1.870842 -2.099391 -2.352813 -2.633415 -2.943671 -3.286223 -3.663894 -4.079687 -4.536790 -5.038585 -5.588646 -6.190741 -6.848837 -7.567095 -8.349870 -9.201708 -10.127341 -11.131678 -12.219803 -13.396956 -14.668524 -16.040030 -17.517108 -19.105491 -20.810984 -22.639440 -24.596736 -26.688741 -28.921284 -31.300119 -33.830881 -36.519038 -39.369797 -42.387907 -45.577111 -48.938459 -52.465009 -56.125321 -59.816298 -63.255363 -65.983695 -67.361711 -67.717920 -68.228921 -71.763016 -78.185728 -84.374432 -90.526998 -96.800664 -103.231304 -109.825420 -116.579941 -123.488347 -130.542514 -137.733280 -145.050638 -152.483809 -160.021295 -167.650927 -175.359916 -183.134925 -190.962137 -198.827349 -206.716071 -214.613642 -222.505359 -230.376622 -238.213096 -246.000880 -253.726689 -261.378037 -268.943407 -276.412383 -283.775708 -291.025188 -298.153346 -305.152664 -312.014221 -318.725527 -325.267413 -331.610019 -337.708162 -343.496581 -348.885535 -353.757226 -357.965285 -361.346639 -363.766794 -365.229559 -366.064180 -367.480757 -373.550911 -383.783251 -398.587997 -404.457725 -382.651848 -390.588268 -401.406368 -399.355316 -383.046058 -333.932683 -363.532322 -460.385037 -639.877728 -752.294268 -856.046552 -1057.464103 -1259.989617 -1635.371755 -2161.447119 -2706.225955 -3072.077677 -3165.864721 -2521.291030 -1359.924509 -1027.649669 -1039.512830 -1459.678947 -1925.820444 -1964.607613 -1509.119504 -1185.164014 -985.414573 -874.029102 -576.149987 -389.014264 -578.223024 -1087.064938 -1574.182807 -1798.619640 -1733.689875 -1620.458033 -1337.555196 -798.248117 -353.624881 -18.226688 244.599961 555.237271 951.595148 1182.405396 1354.455309 1494.526427 1816.664337 2360.297833 -67.899490 -69.432887 -73.164350 -78.641606 -84.492455 -90.556674 -96.804128 -103.227060 -109.819051 -116.573174 -123.481737 -130.536254 -137.727456 -145.045298 -152.478991 -160.017031 -167.647246 -175.356843 -183.132482 -190.960343 -198.826217 -206.715610 -214.613853 -222.506238 -230.378158 -238.215269 -246.003661 -253.730043 -261.381919 -268.947766 -276.417166 -283.780863 -291.030679 -298.159168 -305.158873 -312.020971 -318.733113 -325.276317 -331.620940 -337.722024 -343.514521 -348.908880 -353.787416 -358.003450 -361.392109 -363.814084 -365.263192 -366.050529 -367.171641 -371.789983 -383.011654 -396.673661 -407.755721 -405.046831 -390.737918 -386.093945 -381.440500 -362.647088 -363.381514 -430.609112 -549.339848 -656.681898 -739.286233 -846.074367 -1024.015448 -1280.852449 -1623.931040 -2018.265282 -2394.903460 -2596.072413 -2437.229131 -1907.252631 -1408.718830 -1147.259133 -1189.067725 -1353.263979 -1498.308248 -1486.889155 -1282.465199 -1075.279727 -955.700617 -877.008874 -754.767270 -598.400051 -634.138620 -1025.283345 -1532.018144 -1691.195990 -1604.822169 -1467.592858 -1230.319561 -858.408336 -550.316904 -227.452914 79.795398 381.850105 729.139797 1082.430185 1423.694718 1754.532407 2311.067998 2996.138539 3527.344120 -67.717920 -68.273344 -70.231050 -74.034087 -78.988936 -84.616129 -90.601418 -96.823499 -103.238314 -109.827572 -116.580602 -123.488550 -130.542576 -137.733299 -145.050643 -152.483811 -160.021296 -167.650927 -175.359916 -183.134925 -190.962137 -198.827349 -206.716071 -214.613642 -222.505359 -230.376622 -238.213096 -246.000880 -253.726689 -261.378037 -268.943407 -276.412383 -283.775708 -291.025188 -298.153346 -305.152664 -312.014221 -318.725527 -325.267414 -331.610023 -337.708175 -343.496628 -348.885679 -353.757560 -357.965920 -361.347559 -363.767668 -365.227842 -366.045623 -367.110407 -370.866202 -381.527618 -397.190729 -407.170390 -405.870268 -395.797566 -386.328769 -377.548349 -371.881888 -393.285022 -460.938095 -563.752039 -656.861593 -732.664126 -835.878023 -1011.401320 -1263.257066 -1579.921225 -1932.987811 -2219.537613 -2321.695309 -2171.534618 -1811.352384 -1432.388449 -1220.877273 -1205.087531 -1275.680850 -1335.901483 -1300.111150 -1167.299846 -1029.181666 -950.790447 -887.237743 -781.287297 -682.654560 -743.532390 -1019.321805 -1364.564213 -1531.715869 -1498.303296 -1358.989194 -1147.978976 -865.958032 -579.700243 -265.217679 37.117201 348.381716 693.580379 1079.438126 1495.500941 1986.008721 2612.160021 3300.057521 3846.724147 4083.144921 4347.382281 792.221120 7259.435543 3056.112281 550.826102 -1746.252064 2402.063921 1413.631405 3047.855006 -1607.307142 -618.688300 1662.749368 4572.006869 516.247991 2580.947397 1044.913471 1543.687397 1511.310263 1361.790211 560.810085 4796.846029 -826.495638 1248.220896 5754.087324 4544.578261 3514.980244 2219.870339 -9526.530668 1409.505976 2721.025333 4358.127375 2233.496152 2658.880726 1247.008559 4485.483793 1445.740484 363.769107 2524.599957 1816.341562 1556.974112 5297.550848 -1288.497807 3454.416978 4298.913991 3571.791364 4227.345478 4301.167397 5922.016002 3469.118100 3829.824687 3880.411280 139.589297 486.074216 1269.072956 3146.478299 559.602222 3035.604516 2575.668742 429.220292 1696.892817 -14966.228974 3462.276589 5672.026896 8269.143871 2527.353515 3129.719173 4328.625321 1609.317589 2695.318055 1559.527429 992.041152 -20347.108248 5881.081656 2173.081309 1996.682465 2586.707759 1761.609564 696.170662 1654.768604 1874.845418 807.661189 583.911361 4225.299616 4033.634792 -2962.001436 2815.223742 -22454.352009 -25696.137577 4349.697560 -680.960131 3050.156776 4158.277055 2963.396754 257.347231 3351.931369 1882.689318 2900.772882 -20018.752470 2547.584644 3161.335284 3303.210763 2179.740569 937.424375 5987.071681 3023.805779 4168.418405 5779.530937 -32628.549320 1268.995589 3496.009707 4258.899687 3027.856994 1458.200541 3362.754905 3301.575421 2230.762484 1297.805947 2220.315924 3841.278579 910.030441 -1205.015923 2975.427327 7696.662899 4552.775632 2798.293609 6765.297898 7195.989252 5054.203044 -29028.890835 -6270.651400 3420.946297 3617.486455 4404.662016 3581.251904 -1122.474638 -1779.106564 4357.581675 3848.083476 3239.062188 3593.609752 -32304.036358 465.538091 -18967.568471 8941.456234 7454.202371 5055.411034 -32560.371249 7638.912579 7490.706268 -2260.080002 5405.612544 3502.723353 4472.899509 -9849.500008 2371.412416 3018.682506 -27113.679277 5244.624465 1397.550820 2030.644780 8079.672182 5322.421610 5378.642075 -3196.722390 -1421.798752 3083.915322 9279.347779 -730.651065 3284.783849 2175.980785 -28709.815478 4659.669566 3496.011282 2520.662696 3678.942317 -1026.180463 2962.405671 3641.250375 2712.042175 3164.840766 -23776.686911 10279.643862 6647.146446 9075.229932 3700.178900 -931.638701 -4933.101798 -93.817571 5481.953163 9006.923886 -4080.912129 -2203.077749 6110.765612 -30912.447491 6699.350855 2357.076045 -29470.395232 2773.006654 9790.738912 3964.181060 4039.155500 3028.295396 2050.851555 9201.611316 7028.875679 6993.788488 3132.232996 6328.580615 6618.663012 -6313.041696 7353.506937 5824.234319 2867.346950 12303.981545 10380.707139 -10517.638929 2761.988056 5584.897606 5008.374459 6859.500860 9553.580248 -26727.524564 -9679.132519 11248.507511 3449.694179 6427.231632 5356.809894 4380.244264 9449.679251 10819.996934 8547.540312 -32618.809873 7558.165906 6701.918976 9732.180480 7107.276289 -6186.630584 3227.703883 7807.971000 -20700.293543 -24368.321818 12543.636685 5611.155785 5220.187721 6527.151089 -30476.327841 8849.621788 10129.596853 6842.699363 7999.823637 5830.980913 10131.821607 7105.519316 8089.124078 9372.570318 6874.557281 -11006.008947 13801.632541 13078.902585 9015.932749 5189.892702 5260.902548 9121.022780 6125.535119 3784.098723 8039.331149 9309.183770 8549.785486 5246.435637 7733.321708 3119.920562 6300.548291 8553.647590 11058.389916 5430.580853 4868.685938 11061.654124 11072.353555 2134.838025 2813.741024 5976.852236 12176.587144 9053.885890 10056.297714 13109.665783 6397.382987 13018.406624 7417.693440 8869.537478 5960.887744 8344.410154 8916.671480 8350.258512 10127.682674 7236.863323 11000.966642 14690.503601 9714.406816 12339.018284 13018.767070 7221.891457 8838.787982 4890.278294 -61.322193 7806.543953 8967.059093 11026.270771 8554.001062 8554.924111 11545.195553 12573.762131 13717.206334 -31364.954304 7993.931828 7077.235564 8670.374243 9679.737496 4567.145764 7110.385857 13853.513688 7763.899690 11052.541662 14577.338670 9337.969283 8977.011688 6293.508513 8949.401519 8451.129165 11671.141585 10406.735751 14173.763739 13156.840992 15197.634161 10999.426566 10219.384586 13440.655142 5955.267482 -10215.780168 -32199.202612 -31983.101470 11399.170407 6925.709190 5852.428374 7559.846415 6983.741071 6947.198367 15366.151191 13944.487899 13430.118471 12209.907678 10453.917122 13127.132815 8533.075789 14821.518969 14002.404590 13382.228057 3811.730791 14783.832624 13268.332014 -31531.073997 12918.851176 15402.549576 5528.940280 15094.168759 15841.037064 14432.929518 13906.599674 17009.476383 13445.992108 9585.073443 10805.759613 17083.105811 13139.021751 14841.401660 11804.977598 7555.287710 14355.550947 9182.346533 12345.320969 9564.549471 13094.281097 9757.486938 14483.741472 14176.390039 13751.818434 11991.533915 12728.330760 10357.078517 8715.487959 14797.935457 16925.008361 14813.414566 15112.195289 14250.173795 15537.409946 14343.463133 12414.859877 4792.696096 -21963.354568 5820.598153 12339.519114 8981.069359 15437.053428 12597.224886 10281.144920 14587.489004 16132.880500 11397.817083 11644.299595 12202.817282 13987.302726 10820.613117 15707.937189 10728.999069 15672.089557 15556.207510 14654.870247 14062.608716 13104.426305 6372.297524 15334.223482 11204.046978 13952.927716 7915.016339 8740.891122 12501.547219 13612.237908 12018.730939 13866.411892 11975.733710 12772.237237 13973.964274 10633.877271 16386.472696 15116.740548 14686.024575 13115.032302 12956.016468 10415.538037 5734.533404 12066.368166 7969.022506 10454.912479 8544.882104 10901.784195 9907.448544 9386.728490 15086.811036 7153.008054 9899.597549 16366.786577 10466.706859 14821.367215 16734.867882 13877.840063 15972.901056 15207.609042 10997.195261 2268.043083 14621.869300 13442.411450 11418.068326 10739.052150 7751.564023 11636.358926 8099.167664 11882.672611 15216.505914 15759.106247 9494.918743 12293.123615 11404.754454 16767.430288 15129.854940 15773.044632 16796.626958 7759.048845 16758.985839 11628.726560 4327.498404 11686.127465 17057.998220 11075.675690 11214.862368 16204.935718 9257.177145 16347.677018 12508.312198 14190.702243 15450.384512 15332.620917 14478.685695 16520.634582 15123.372537 16483.473329 14992.887522 15886.921614 17052.804896 7772.673925 12570.670839 10241.258558 14715.505476 15360.046626 15303.314861 12305.928309 16449.577903 13698.176592 17175.578339 12851.547555 17203.794421 16631.368473 14694.531666 15941.145351 16829.631590 15617.145468 12411.220122 17602.339496 12661.997168 11879.535928 12762.323091 18948.244865 16671.089092 10347.797211 15865.564975 8741.949125 13555.553102 14908.228776 8533.198822 15702.492214 16743.432059 16281.197491 13252.036882 15677.753472 17430.174949 13022.839868 14041.462347 17982.611749 14458.456300 7642.811861 7143.722054 11096.500298 9070.215257 10863.552590 11590.725552 9329.966455 10077.493054 13810.397307 13756.321722 17016.918493 15656.954112 16323.581194 12756.621775 11447.075172 17063.344276 18192.707836 15631.403846 14563.252304 17381.322295 7907.465682 13879.505942 8363.096898 7490.920594 6142.031778 12257.745094 15023.396675 12166.759088 12678.532789 13005.911233 8006.698025 17430.965935 10545.508325 17058.313604 17609.262855 16830.033923 17021.441742 17408.508854 18057.614540 16479.334671 16954.023274 15800.684655 2358.472735 7733.686311 3871.947773 8666.279952 14200.180899 13959.871660 10141.983592 12283.952427 10528.317626 10617.596039 14793.050630 15513.344289 10104.311040 14655.643708 15912.653721 17601.330044 16679.203823 14766.608425 16613.700264 6215.529938 2498.561138 3255.871195 3165.016887 6249.074701 4218.708347 8958.727237 11465.585112 16074.636340 7893.262724 11548.070632 9822.289517 10374.544983 13775.798878 12110.870430 16623.903800 17737.516675 13631.459703 17441.153837 7836.314400 16288.388740 3508.403858 4026.054339 2588.025171 1754.611544 12094.857523 5499.666742 8824.239524 9450.909035 8031.899128 11577.219928 6844.835402 11572.762228 9524.712699 17619.941056 13026.461445 16905.803255 15033.352543 17692.728245 13002.878300 14950.032043 3737.232727 3666.976617 3685.715678 3054.438127 3495.281151 6122.099335 7305.476864 9139.766965 7987.971990 9394.850869 7022.850333 10600.369781 17705.548743 10583.150096 13106.297219 16389.659781 14649.457684 13701.600065 12706.565067 13221.410726 3176.173999 2872.006872 5173.308594 2205.082441 3856.773574 7436.652550 5467.129417 6065.787416 8547.928728 6626.915831 10617.947362 11130.604040 9669.078875 9715.549201 14831.229754 13238.743330 13595.772738 16379.768096 8626.055959 8493.362618 2320.004548 2378.966963 2946.579367 3064.318743 5715.557677 4922.385598 7101.081844 10422.855349 8921.322553 9485.507185 11047.505905 12831.043173 12508.655279 16436.097087 16318.297585 17725.781062 16010.327096 17003.355547 15115.884975 14938.053241 302.855821 5649.618602 4147.983990 3763.421903 2861.898574 2328.611251 3141.920