<VTKFile type="PolyData">
<PolyData>
<Piece NumberOfPoints="6715" NumberOfVerts="6715" NumberOfLines="0" NumberOfStrips="0" NumberOfPolys="0">
<PointData>
<DataArray type="Float64" Name="Pressure" format="ascii">
 6072.443432 5844.227846 5485.968097 4973.735149 4325.436395 3677.663651 3296.798591 3235.851463 3373.345868 3778.952890 4841.826588 7366.051792 9787.098665 4720.607432 -4868.685660 -15316.374640 -27271.608313 -29189.951127 -18865.267968 433.808706 5134.960936 3036.096389 742.982679 247.178410 1271.260722 2815.928120 4466.565310 5748.164101 6606.502944 7234.140589 7594.966534 7977.263666 8379.451961 8658.823892 8891.133380 9233.147915 9604.471450 10005.984372 10510.342985 11029.956275 11377.943238 11567.430061 11811.814845 12123.271485 12516.770120 13016.437231 13347.126006 13480.468459 13508.077032 13491.171700 13460.969661 13496.478922 13675.563747 13952.222346 14149.033961 14321.286731 14564.648762 14761.914901 14964.098439 15148.848310 15261.920930 15276.276262 15236.250047 15190.710579 15131.190810 15097.557649 15094.341550 15116.359135 15132.140466 15232.394285 15505.507657 15828.943437 15962.686923 15926.469621 15832.075236 15816.501009 16015.150081 16364.150907 16695.678810 16870.072479 16875.725684 16891.693374 16999.030826 17155.833586 17165.337910 17109.614730 17142.621328 17153.893262 17068.542147 16830.252221 16721.011231 16766.804872 16851.749197 16940.367722 16913.204922 16803.827581 16832.590131 16993.172694 17162.949676 17236.323299 17145.928125 16968.486296 16781.574586 16663.853924 16637.029310 16536.605843 16365.401173 16381.399965 16572.316789 16707.709624 16558.782960 16426.521145 16489.505652 16704.040964 16863.186555 16880.598492 16822.408617 16799.795490 16781.187483 16770.346795 16696.202701 16610.205065 16511.685342 16462.808746 16470.301421 16465.272085 16530.369646 16681.564296 16682.942252 16695.089808 16730.657225 16598.471831 16281.260056 15982.894539 15816.380945 15801.821037 15894.709480 16089.939796 16345.954212 16520.511124 16738.338634 17009.886776 17129.006248 17178.214448 17306.432524 17285.168837 17130.767782 17146.085705 17087.793141 16851.973440 16581.228882 16816.576851 17415.815317 17718.725920 17713.747363 17619.800257 17706.548263 17771.580867 17467.309774 16975.464172 16831.768310 17022.280977 17304.615542 17578.015192 17772.950810 18079.276586 18342.436592 18470.081386 18550.523486 18523.578775 18386.946110 18142.534982 17940.830198 17963.877269 18195.054115 18486.371168 18647.652937 18774.117689 18915.134666 19029.555518 19208.422793 19489.964842 19681.758335 19755.394674 19724.826001 19605.491527 19459.192242 19419.229538 19461.784985 19544.320974 19574.369944 19450.735580 19252.861876 19041.332236 18823.778556 18654.712922 18503.180776 18373.797358 18280.588990 18274.634106 18289.857170 6516.842664 6282.701198 5983.576415 5583.012814 5054.043980 4506.306703 4002.233849 3572.904706 3356.862734 3419.793480 3674.413455 4250.777917 5977.646987 8532.390855 9234.642872 3589.897626 -6287.357364 -15690.459731 -18403.279179 -9631.535193 2501.808561 5105.616749 2842.712002 970.458659 1045.436460 2284.462637 3732.756575 4976.330620 5905.798724 6613.390787 7193.771853 7670.844522 8094.714740 8473.292955 8798.523699 9071.328702 9389.284010 9749.688344 10134.211673 10607.885616 11071.531158 11365.721700 11566.727160 11823.663363 12138.257885 12515.137920 12953.582977 13277.948984 13430.588138 13489.192762 13505.683494 13522.182810 13606.741933 13817.523032 14051.773234 14238.316613 14447.142670 14733.016547 14990.046851 15152.819383 15263.516818 15327.551204 15340.178232 15312.634068 15245.575819 15161.036066 15105.763440 15109.189232 15167.136399 15258.651810 15408.868798 15642.451181 15857.322208 15954.342225 15947.753653 15901.342297 15913.349290 16080.903390 16383.215582 16663.242466 16818.770793 16900.571749 16980.571828 17097.386208 17193.086297 17203.674765 17188.404785 17238.507188 17287.035575 17198.080532 16986.129464 16821.116694 16800.316104 16869.771880 16941.504519 16947.638227 16916.043952 16932.591000 17036.761158 17166.661705 17234.804503 17174.284047 16998.310555 16810.291342 16669.964337 16565.029387 16480.063963 16373.269430 16351.265574 16460.310847 16545.039733 16502.962817 16463.340065 16535.232273 16764.020676 16961.041065 16953.993360 16872.642779 16846.620523 16845.687857 16804.040646 16753.875911 16695.662411 16624.226032 16599.026150 16595.870893 16603.060290 16654.873100 16740.463499 16768.260564 16736.459541 16693.476871 16552.873413 16286.177732 16047.617858 15879.846234 15827.824593 15930.891806 16132.300351 16357.855814 16560.202557 16743.384396 16944.330922 17108.928055 17222.987541 17303.728106 17307.479941 17245.396413 17205.792818 17155.562688 16980.868603 16827.670577 16991.791854 17377.158823 17660.692113 17732.378012 17730.157283 17744.304075 17699.454341 17510.898236 17252.118336 17135.374986 17215.228956 17426.696733 17684.625027 17924.166622 18185.643534 18458.129633 18637.015279 18716.464386 18709.342314 18593.174425 18401.609749 18247.895899 18235.231057 18354.993716 18531.113287 18703.723780 18875.182287 19053.633452 19221.589151 19408.138565 19610.029888 19749.860435 19796.666100 19745.604641 19632.946090 19557.753505 19542.422698 19546.929392 19576.330220 19568.182764 19460.697033 19268.258113 19056.923333 18860.770522 18677.761350 18512.750761 18402.657679 18353.266230 18342.087597 18339.730826 18345.741445 6731.443284 6636.100083 6411.454148 6084.479677 5669.431385 5163.579183 4625.917059 4110.861418 3671.275373 3387.585404 3325.488579 3465.096747 3925.878442 5298.037848 7843.025798 10134.671071 8645.298005 2213.789984 -3335.992185 -4393.242384 66.267466 4773.231740 5024.156551 2752.797086 1306.915044 1515.056757 2660.692661 3961.364738 5060.031802 5916.477649 6603.242338 7183.867526 7690.827897 8134.123701 8513.409137 8843.454241 9143.216651 9453.107794 9805.249193 10201.686527 10636.793684 11047.675683 11358.631518 11603.611937 11861.751165 12165.591043 12521.576731 12897.185437 13204.022502 13383.468861 13469.233733 13516.722362 13578.171130 13696.553125 13879.286362 14078.165510 14273.718992 14491.292367 14748.202023 14994.596454 15172.155786 15286.141433 15347.615790 15357.300518 15325.197903 15257.437310 15175.346318 15118.145692 15117.311104 15184.277212 15315.479036 15497.271488 15696.544579 15852.184232 15928.031526 15934.945504 15924.742250 15970.339360 16123.046018 16365.348791 16604.693441 16777.867258 16899.165589 17000.865807 17098.835049 17175.013950 17212.333800 17225.953787 17247.650714 17258.010768 17189.031328 17061.137734 16943.429078 16884.797791 16883.691553 16900.419704 16909.416495 16920.898257 16962.943935 17048.167326 17149.104411 17199.949005 17148.828844 17005.133888 16834.727264 16682.522548 16557.668729 16461.691285 16394.655837 16386.996630 16443.490981 16493.645447 16501.643178 16509.510018 16586.426495 16745.261687 16895.181730 16941.239903 16916.015478 16889.380003 16869.172495 16832.009569 16785.888246 16739.073056 16696.666750 16676.171324 16673.390250 16685.964334 16713.239616 16745.772967 16756.831119 16719.236879 16629.659982 16483.732092 16277.770317 16075.908449 15932.619213 15893.556975 15983.951119 16159.477258 16366.703953 16571.373181 16759.903497 16937.535991 17095.068177 17213.059382 17279.589235 17293.980717 17265.579364 17211.881218 17133.163910 17025.448930 16980.827531 17108.775221 17364.516202 17595.439193 17716.692490 17757.625873 17752.302250 17682.453782 17537.430539 17373.709525 17293.035660 17346.772184 17516.775903 17751.397763 18004.717964 18259.853322 18500.856334 18679.077100 18772.230597 18782.499397 18699.727295 18558.522203 18432.251076 18390.012862 18445.570465 18572.943207 18736.773379 18921.603776 19117.139940 19310.185673 19495.612144 19661.599726 19773.326498 19806.771219 19764.793755 19686.533569 19631.655700 19614.314835 19615.153537 19613.963078 19574.460513 19462.613459 19287.964742 19091.734831 18898.433297 18715.406178 18560.053305 18455.890685 18404.204283 18381.257018 18368.368010 18365.183665 18366.421968 18289.857170 18209.997036 18099.206631 17955.059084 17772.027032 17609.062907 17408.412518 17070.920460 16653.157406 16244.598381 15753.801208 15132.764517 14480.665803 13865.723435 13280.101552 12621.323693 11817.131517 10941.699650 10396.561256 9973.125932 10067.050241 10717.730961 11975.731325 13621.318112 15796.178766 18228.105499 20017.150244 20415.565162 19043.659180 16646.551589 14138.540038 11838.414086 9928.706628 8437.868024 7292.580956 6393.254990 5654.757126 5020.868514 4461.170140 3962.014590 3517.913921 3125.925429 2782.963701 2485.026814 2227.349112 2004.841062 1812.504177 1645.716005 1500.381169 1372.980393 1260.554144 1160.650663 1071.259026 990.740006 917.761744 851.243322 790.307056 734.239015 682.456752 634.483077 589.924802 548.455554 509.801905 473.732237 440.047876 408.576079 379.164559 351.677262 325.991132 301.993675 279.581129 258.657094 239.131517 220.919915 203.942796 188.125195 173.396311 159.689197 146.940511 135.090282 124.081717 113.861012 104.377193 95.581958 87.429538 79.876561 72.881936 66.406729 60.414061 54.869000 49.738464 44.991120 40.597273 36.528712 32.758383 29.259541 26.003075 22.949046 20.006777 17.081592 15.521779 18345.741445 18299.988888 18214.690498 18097.384781 17958.297692 17791.992738 17604.267281 17370.051650 17048.291329 16659.699015 16240.094728 15762.193622 15191.528877 14571.557811 13948.009836 13318.062666 12623.698791 11869.153318 11123.780511 10547.654311 10204.095949 10261.040372 10853.386902 12025.969785 13732.689815 15863.767797 18030.786441 19590.368090 19873.006689 18685.480120 16537.891730 14087.708478 11802.291354 9902.458969 8419.572493 7280.918963 6386.183215 5650.413843 5017.861521 4458.688715 3959.700297 3515.676189 3123.791432 2780.988307 2483.252360 2225.794663 2003.505121 1811.371440 1644.763854 1499.584483 1372.314601 1259.996882 1160.182480 1070.863501 990.403550 917.473251 850.993791 790.089228 734.047057 682.285992 634.329784 589.786009 548.328912 509.685559 473.624729 439.948059 408.483049 379.077601 351.595804 325.914709 301.921904 279.513684 258.593698 239.071922 220.863902 203.890164 188.075759 173.349899 159.645649 146.899676 135.052019 124.045891 113.827498 104.345869 95.552711 87.402259 79.851149 72.858293 66.384762 60.393683 54.850129 49.721027 44.975061 40.582587 36.515546 32.747381 29.252973 26.008670 22.992997 20.195761 17.663752 15.970937 15.269922 18366.421968 18349.639448 18300.046052 18213.279670 18101.110916 17964.995059 17803.143511 17606.779121 17359.082029 17044.435530 16667.549999 16238.145961 15750.239449 15200.099794 14604.897293 13983.655120 13331.902022 12632.586839 11898.631756 11196.032287 10633.547936 10324.521894 10399.914722 10979.181099 12125.863907 13817.760772 15889.341714 17930.837355 19325.202538 19538.963324 18447.057930 16422.977730 14048.488194 11798.200556 9911.526218 8430.497173 7289.632539 6392.091801 5654.322313 5020.712574 4461.117220 3961.997800 3517.908845 3125.923976 2782.963310 2485.026714 2227.349088 2004.841057 1812.504176 1645.716005 1500.381169 1372.980393 1260.554144 1160.650663 1071.259026 990.740006 917.761744 851.243322 790.307056 734.239015 682.456752 634.483077 589.924802 548.455554 509.801905 473.732237 440.047876 408.576079 379.164559 351.677262 325.991132 301.993675 279.581129 258.657094 239.131517 220.919915 203.942796 188.125195 173.396311 159.689197 146.940511 135.090282 124.081717 113.861012 104.377193 95.581958 87.429538 79.876561 72.881936 66.406729 60.414063 54.869008 49.738489 44.991204 40.597548 36.529608 32.761311 29.269108 26.034346 23.050874 20.346767 18.033071 16.289157 15.391687 15.131797 15.521779 14.479640 12.800267 11.428208 10.249128 9.198407 8.252439 7.398351 6.626975 5.930672 5.302650 4.736735 4.227270 3.769071 3.357379 2.987838 2.656458 2.359592 2.093909 1.856370 1.644204 1.454891 1.286139 1.135865 1.002181 0.883375 0.777899 0.684351 0.601467 0.528106 0.463240 0.405944 0.355386 0.310819 0.271574 0.237050 0.206712 0.180078 0.156721 0.136258 0.118350 0.102694 0.089020 0.077090 0.066693 0.057640 0.049767 0.042926 0.036988 0.031840 0.027381 0.023523 0.020188 0.017309 0.014825 0.012685 0.010843 0.009259 0.007898 0.006730 0.005729 0.004872 0.004139 0.003512 0.002977 0.002520 0.002131 0.001800 0.001517 0.001277 0.001073 0.000899 0.000751 0.000625 0.000518 0.000426 0.000346 0.000277 0.000217 0.000163 0.000115 0.000070 0.000027 -0.000014 -0.000055 -0.000098 -0.000143 -0.000193 -0.000247 -0.000308 -0.000378 -0.000458 -0.000550 -0.000657 -0.000781 -0.000925 -0.001094 -0.001290 -0.001519 -0.001786 -0.002097 -0.002458 -0.002878 -0.003366 -0.003932 -0.004588 -0.005347 -0.006226 -0.007241 -0.008413 -0.009763 -0.011318 -0.013107 -0.015163 -0.017522 -0.020227 -0.023324 -0.026867 -0.030915 -0.035535 -0.040803 -0.046801 -0.053624 -0.061377 -0.070175 -0.080149 -0.091444 -0.104220 -0.118654 -0.134944 -0.153307 -0.173983 -0.197239 -0.223365 -0.252683 -0.285545 -0.322338 -0.363485 -0.409449 -0.460736 -0.517895 -0.581527 -0.652284 -0.730873 -0.818059 -0.914674 -1.021613 -1.139843 -1.270404 -1.414416 -1.573080 -1.747685 -1.939609 -2.150323 -2.381397 -2.634502 -2.911414 -3.214017 -3.544306 -3.904387 -4.296487 -4.722946 -5.186225 -5.688905 -6.233688 -6.823396 -7.460968 -8.149464 -8.892055 -9.692026 -10.552769 -11.477778 -12.470642 -13.535038 -14.674726 -15.893533 -17.195347 -18.584106 -20.063780 -21.638362 -23.311851 -25.088233 -26.971466 -28.965461 -31.074063 -33.301028 -35.650003 -38.124502 -40.727888 -43.463345 -46.333863 -49.342224 -52.491030 -55.782826 -59.220585 -62.809320 -66.561531 -70.514937 -74.811430 -79.680232 -82.542328 15.269922 14.909418 13.956677 12.635184 11.378921 10.231090 9.189950 8.247129 7.394239 6.623450 5.927529 5.299811 4.734160 4.224934 3.766952 3.355459 2.986100 2.654886 2.358172 2.092628 1.855214 1.643163 1.453955 1.285297 1.135109 1.001503 0.882768 0.777356 0.683865 0.601033 0.527719 0.462895 0.405637 0.355113 0.310577 0.271359 0.236860 0.206543 0.179929 0.156589 0.136142 0.118248 0.102604 0.088941 0.077021 0.066632 0.057587 0.049720 0.042885 0.036952 0.031809 0.027354 0.023499 0.020167 0.017291 0.014809 0.012671 0.010831 0.009248 0.007889 0.006723 0.005723 0.004866 0.004134 0.003508 0.002973 0.002517 0.002128 0.001797 0.001515 0.001276 0.001072 0.000898 0.000750 0.000625 0.000517 0.000425 0.000346 0.000277 0.000216 0.000163 0.000114 0.000070 0.000027 -0.000014 -0.000055 -0.000098 -0.000143 -0.000192 -0.000247 -0.000308 -0.000377 -0.000457 -0.000549 -0.000656 -0.000780 -0.000924 -0.001093 -0.001289 -0.001518 -0.001784 -0.002094 -0.002455 -0.002875 -0.003362 -0.003928 -0.004583 -0.005342 -0.006220 -0.007234 -0.008404 -0.009754 -0.011308 -0.013095 -0.015149 -0.017506 -0.020209 -0.023304 -0.026844 -0.030889 -0.035506 -0.040769 -0.046764 -0.053582 -0.061329 -0.070121 -0.080089 -0.091377 -0.104144 -0.118570 -0.134849 -0.153201 -0.173866 -0.197108 -0.223220 -0.252521 -0.285366 -0.322140 -0.363266 -0.409207 -0.460468 -0.517600 -0.581203 -0.651927 -0.730481 -0.817630 -0.914204 -1.021099 -1.139281 -1.269791 -1.413748 -1.572354 -1.746896 -1.938752 -2.149395 -2.380393 -2.633417 -2.910243 -3.212755 -3.542947 -3.902927 -4.294920 -4.721266 -5.184428 -5.686985 -6.231639 -6.821212 -7.458645 -8.146995 -8.889436 -9.689253 -10.549836 -11.474681 -12.467377 -13.531602 -14.671114 -15.889743 -17.191378 -18.579955 -20.059447 -21.633846 -23.307152 -25.083353 -26.966407 -28.960226 -31.068656 -33.295454 -35.644267 -38.118612 -40.721850 -43.457164 -46.327536 -49.335719 -52.484217 -55.775257 -59.210764 -62.792313 -66.520891 -70.395278 -74.394338 -78.380257 -81.183575 -82.291750 15.131797 15.023565 14.569869 13.654900 12.521570 11.344127 10.223342 9.190519 8.250024 7.397612 6.626749 5.930603 5.302629 4.736728 4.227268 3.769070 3.357379 2.987838 2.656458 2.359592 2.093909 1.856370 1.644204 1.454891 1.286139 1.135865 1.002181 0.883375 0.777899 0.684351 0.601467 0.528106 0.463240 0.405944 0.355386 0.310819 0.271574 0.237050 0.206712 0.180078 0.156721 0.136258 0.118350 0.102694 0.089020 0.077090 0.066693 0.057640 0.049767 0.042926 0.036988 0.031840 0.027381 0.023523 0.020188 0.017309 0.014825 0.012685 0.010843 0.009259 0.007898 0.006730 0.005729 0.004872 0.004139 0.003512 0.002977 0.002520 0.002131 0.001800 0.001517 0.001277 0.001073 0.000899 0.000751 0.000625 0.000518 0.000426 0.000346 0.000277 0.000217 0.000163 0.000115 0.000070 0.000027 -0.000014 -0.000055 -0.000098 -0.000143 -0.000193 -0.000247 -0.000308 -0.000378 -0.000458 -0.000550 -0.000657 -0.000781 -0.000925 -0.001094 -0.001290 -0.001519 -0.001786 -0.002097 -0.002458 -0.002878 -0.003366 -0.003932 -0.004588 -0.005347 -0.006226 -0.007241 -0.008413 -0.009763 -0.011318 -0.013107 -0.015163 -0.017522 -0.020227 -0.023324 -0.026867 -0.030915 -0.035535 -0.040803 -0.046801 -0.053624 -0.061377 -0.070175 -0.080149 -0.091444 -0.104220 -0.118654 -0.134944 -0.153307 -0.173983 -0.197239 -0.223365 -0.252683 -0.285545 -0.322338 -0.363485 -0.409449 -0.460736 -0.517895 -0.581527 -0.652284 -0.730873 -0.818059 -0.914674 -1.021613 -1.139843 -1.270404 -1.414416 -1.573080 -1.747685 -1.939609 -2.150323 -2.381397 -2.634502 -2.911414 -3.214017 -3.544306 -3.904387 -4.296487 -4.722946 -5.186225 -5.688905 -6.233688 -6.823396 -7.460968 -8.149464 -8.892055 -9.692026 -10.552769 -11.477778 -12.470642 -13.535038 -14.674726 -15.893533 -17.195347 -18.584106 -20.063780 -21.638362 -23.311851 -25.088233 -26.971466 -28.965461 -31.074063 -33.301028 -35.650002 -38.124500 -40.727883 -43.463328 -46.333807 -49.342043 -52.490439 -55.780903 -59.214321 -62.788923 -66.495079 -70.299060 -74.096660 -77.607364 -80.380275 -81.785151 -82.153655 -82.542328 -85.914113 -91.999365 -97.811393 -103.546191 -109.354310 -115.269893 -121.298993 -127.438674 -133.682910 -140.024345 -146.454817 -152.965498 -159.546914 -166.188929 -172.880710 -179.610692 -186.366551 -193.135190 -199.902772 -206.654811 -213.376371 -220.052416 -226.668366 -233.210928 -239.669241 -246.036359 -252.311022 -258.499571 -264.617667 -270.691276 -276.756048 -282.853844 -289.024785 -295.292836 -301.642837 -307.987384 -314.123629 -319.684204 -324.094992 -326.567942 -326.181006 -322.123414 -314.182098 -303.450632 -293.010078 -288.223272 -296.593307 -325.788330 -381.574396 -471.497387 -542.662377 -466.451944 -356.538237 -245.920211 -286.464484 -373.897921 -424.146226 -433.282036 -429.288162 -429.859043 -394.963096 -371.007997 -380.539978 -386.448693 -373.595206 -325.949734 -270.947107 -193.843688 -138.505409 -106.439145 -102.726465 -182.289387 -202.496720 -233.550944 -90.009123 6.658073 -38.296088 -226.448098 -392.131111 -463.324878 -497.339109 -408.856089 -134.477588 -70.802077 -83.625008 -207.050040 -273.160827 -87.613827 319.762714 805.296542 1198.355558 1797.381766 2463.320097 3051.887721 3820.527109 4656.252024 5394.001521 5821.175001 5972.082972 6072.443432 -82.291750 -83.738482 -87.271599 -92.440383 -97.927178 -103.576806 -109.359666 -115.267823 -121.294872 -127.434158 -133.678523 -140.020266 -146.451121 -152.962226 -159.544102 -166.186610 -172.878917 -179.609462 -186.365918 -193.135190 -199.903435 -206.656159 -213.378411 -220.055130 -226.671698 -233.214772 -239.673422 -246.040618 -252.315011 -258.502858 -264.619766 -270.691719 -276.754505 -282.850331 -289.019952 -295.288364 -301.641914 -307.995203 -314.147731 -319.734310 -324.181616 -326.698634 -326.352609 -322.309760 -314.321072 -303.439572 -292.720823 -287.460338 -294.858720 -322.565638 -374.562787 -449.221298 -527.363764 -531.548546 -444.503292 -364.193420 -374.163914 -424.417946 -453.230323 -456.367171 -454.129194 -437.001099 -405.700472 -387.140921 -388.926188 -391.656097 -368.185953 -318.705164 -265.206942 -205.921058 -144.714406 -103.982649 -98.052664 -145.274381 -207.585742 -224.512735 -169.997696 -127.844372 -174.914140 -296.633446 -404.612640 -457.997544 -454.532763 -375.445906 -187.949737 -61.889760 -98.931823 -192.904923 -193.360176 8.863857 417.506552 847.318803 1209.766924 1800.064502 2517.627851 3159.023662 3877.347683 4689.262813 5427.582889 5832.156125 6023.093535 6272.327485 6516.842664 -82.153655 -82.673676 -84.519480 -88.109895 -92.773723 -98.044534 -103.617983 -109.376341 -115.276657 -121.301070 -127.439311 -133.683105 -140.024405 -146.454835 -152.965503 -159.546915 -166.188929 -172.880710 -179.610692 -186.366551 -193.135190 -199.902772 -206.654811 -213.376371 -220.052416 -226.668366 -233.210928 -239.669241 -246.036359 -252.311022 -258.499571 -264.617667 -270.691276 -276.756048 -282.853844 -289.024785 -295.292836 -301.642838 -307.987384 -314.123624 -319.684168 -324.094824 -326.567256 -326.178425 -322.115607 -314.162906 -303.405765 -292.900500 -287.831615 -295.033832 -321.724819 -370.592128 -433.809929 -491.665450 -509.487842 -473.075167 -431.196036 -426.839741 -447.937920 -462.567053 -462.082058 -451.932398 -431.646699 -408.692256 -395.194661 -391.707823 -384.696429 -358.315259 -313.894716 -261.669902 -208.087614 -159.643559 -126.247031 -117.028250 -139.768065 -173.695199 -181.123112 -167.867892 -168.403719 -219.418038 -314.480574 -405.108198 -451.555630 -433.186878 -349.788369 -223.983384 -136.626941 -147.889638 -178.069564 -125.516181 81.849613 437.301935 860.673705 1281.925194 1864.586236 2544.438477 3227.735112 3953.521692 4707.261659 5375.613295 5833.060200 6132.846894 6414.836406 6635.436885 6731.443284 -396.068338 359.088473 1809.771769 6179.404861 1362.119068 -147.771744 322.192942 -933.643978 2834.891618 -142.367865 1071.771161 -590.865345 1474.789558 2577.488884 3227.206663 948.695190 2644.319550 5871.421683 5536.560351 5774.236367 258.096712 -83.482998 -310.049175 2239.975879 6260.634606 2980.761997 -1379.410760 -17599.648981 1302.243096 1349.060612 -805.015275 439.831207 1052.685633 -1046.745022 2888.031668 5167.733003 1916.177392 686.781798 4725.787606 5247.670368 8252.399483 -39.333771 222.560941 4907.197223 1388.965960 11.458997 3976.240898 2652.696751 1165.900360 -4403.719910 1200.622385 1947.559647 -2236.512839 3021.206281 2591.633458 5304.514585 970.315651 4307.308700 5482.452472 5134.171766 -6791.819801 3067.709645 163.809831 1814.954703 26.217726 1658.064343 9054.125584 -429.787212 -913.405636 1712.430692 5755.198083 1411.702135 758.536825 -355.578516 2009.750867 2939.791548 2339.161002 5841.018230 4027.167686 4330.464046 3653.100511 2924.449252 343.570609 2023.849197 -20096.756344 2269.044151 -22553.871273 974.880694 8103.420820 1203.847974 13.345616 1347.154449 3261.282693 900.102607 8819.875034 5191.506850 358.362273 -20946.011052 3229.367357 3089.734980 10007.456686 3678.120002 -9994.193285 5999.619137 3229.179468 27.040437 7565.699603 -13275.184866 1511.686608 3559.524818 4585.894130 2048.424160 3991.427191 3070.550696 -5910.432511 4139.921095 -5553.930009 548.816222 3096.321089 2674.668827 -23093.165717 1517.199077 7918.936493 4238.987686 4541.061320 758.410532 8954.502139 348.006578 -11036.610809 -8220.593014 264.455085 2553.301960 3308.704934 2917.331715 -15725.675220 -13915.760759 3802.473283 70.328804 934.282554 2947.903951 -29033.936167 9366.020904 -29476.320136 10091.117049 7226.121307 536.794200 -18274.148320 7627.495183 6209.243583 -10675.841983 4232.935129 5492.486871 9145.630860 -27195.240748 2656.947680 1460.768485 -16509.753765 2751.256673 87.570052 1124.213882 8955.509994 5395.457295 5933.328622 -12283.750434 -11561.839368 6326.519275 9209.822759 -22992.274982 2650.721452 4582.136211 -27188.705224 -1963.364144 4830.282025 9852.153421 1987.459401 -6132.072838 392.697681 2623.562775 3474.843896 2978.001407 -718.753695 10176.563344 6081.331203 9695.857207 1837.157877 -10429.001999 -21913.488818 -17821.670359 6555.695028 9250.428619 2220.774743 4540.679348 8119.928379 -28459.688483 7227.088074 2076.099519 2164.459692 2708.793249 10037.740345 1569.971602 3850.132446 3318.473753 3291.339685 9601.771079 7700.828537 7440.454450 3462.111725 7367.483521 405.590004 -23788.082784 8481.700097 8432.975025 2091.607088 11157.508703 10404.937454 -29399.454915 1468.713800 3540.641043 3092.721410 7842.643837 9196.359936 -2082.308439 -12985.749880 10750.441518 2824.455233 6730.960657 8062.321301 4456.023606 8438.615518 10766.538848 8977.764280 668.832849 7817.423288 7196.091021 9605.128958 7119.851295 -15471.072621 525.706233 7394.992157 2891.856762 -29041.906575 10601.729422 5964.718946 1412.963918 5196.498168 -30467.106804 9232.967703 9365.585167 7696.027278 7530.159780 7100.953764 10191.276803 7488.088254 8932.835690 9495.863468 8179.833890 4191.436059 11744.212505 12186.287225 9100.327410 5000.377910 6314.006938 8672.511961 7183.424317 2872.236918 7772.383662 10070.958113 7917.120351 6549.474548 8667.139156 2360.877914 7096.349932 8911.952160 9459.881936 7379.513099 4643.077247 10568.087455 11440.781745 2164.625128 9788.277180 7050.407098 11843.407602 8137.712288 9222.202922 12082.124806 6972.322336 11233.738484 7337.606255 8598.184458 6762.120810 8581.021118 8291.716371 8909.237282 9234.196852 7219.990361 10072.438969 12403.555966 10385.337568 11231.166878 10875.112477 7966.968591 8209.282862 4888.236271 5432.398889 7568.620269 8449.697258 10699.767719 8271.069382 8226.162518 10925.532697 11216.346569 12361.994197 -18039.341780 7470.564671 6717.373494 7951.451358 9505.212289 4550.442757 7896.675700 12124.929556 8462.789370 10166.420071 13147.823362 9227.599223 8245.391268 2888.643668 9629.903653 8916.236113 9773.710285 10173.049008 12820.571238 12063.235546 13027.247884 9534.764477 8676.682291 11897.649431 4520.639545 5070.595519 -30742.355836 -30444.766674 9778.481835 8661.239871 5556.497267 7208.612623 6299.516110 7305.296057 13383.432951 12344.522874 11306.141033 11602.070004 9846.797032 12061.546567 8558.999081 12963.698894 12921.872049 12434.286114 3175.791167 12841.070416 11424.793849 -29218.326667 10360.499212 13323.181001 6900.402161 12191.754107 13108.642401 12075.227858 12704.529115 13782.550153 11687.249913 7598.489348 10145.232287 14247.136749 11239.355654 12146.171320 10758.805422 8093.809583 12400.832723 8546.526770 11110.766686 9140.309369 11060.258126 8510.397040 12964.992804 14361.245268 12570.443036 10777.232182 11524.937229 8961.126607 7799.933811 13935.598257 14386.468330 12909.075741 13198.919154 12836.287504 12737.192785 12721.187061 11730.630810 7746.385085 -22674.717138 698.930877 10623.315995 7107.751286 14242.497406 11244.625284 8828.950479 13604.663132 13972.396130 9698.721439 11617.242777 10763.265023 12145.606969 10049.316139 14953.701983 9475.030849 13671.335636 13339.286455 12779.370010 12592.622276 12413.698701 7221.653744 12964.412936 9293.976498 12791.794983 6805.821407 7685.121057 11102.044790 12555.408024 9602.827347 12419.967385 10728.154738 11136.719264 11716.127393 9562.236476 14761.163180 13012.672393 12321.680453 11708.811357 10823.423776 11042.618975 829.858828 10452.730483 6647.748973 9072.337529 7020.112562 9605.689204 9191.311295 8060.794618 13447.842073 5443.026964 8647.908975 14965.463812 8486.092066 12847.459273 14669.004797 11435.726654 14419.300479 13449.477061 10127.761089 1346.896620 13214.109373 11838.154658 10351.907617 8815.398076 7307.116954 11644.079993 7191.366041 11087.559819 13472.043818 13891.447420 7603.853876 10672.530136 11653.994663 13280.918712 13313.824014 14064.455011 13877.750310 6898.744916 14772.532644 9705.157613 3390.280430 10249.713706 14173.385383 10479.989516 11573.226149 14946.214155 7959.343312 14774.210125 12202.499691 12724.027206 13173.937156 14404.295674 12885.796062 14128.500037 13398.537233 14377.145042 12307.630090 12941.283134 13992.116238 7032.945130 11526.751285 9011.486037 12723.483946 13758.190897 14209.957869 9632.200572 14097.955974 12159.851998 15357.896022 12189.442961 15409.343220 14794.636887 11992.975892 14094.830064 14189.156596 13770.837831 11199.592707 14790.969159 11358.362765 11052.587712 11165.365853 15713.792044 14292.651947 8571.274036 14260.185209 9200.312303 11431.531110 13633.770032 7016.839976 14109.068068 13988.965288 15380.347653 10810.380849 13910.079640 14316.636671 12495.713703 11784.869878 14995.511684 12498.174574 7525.729969 5727.879477 10453.229856 9540.236580 9968.771284 12146.361600 9570.886484 10620.452361 12299.997930 12069.156972 15677.607610 13008.654783 13704.524499 10866.777095 9578.109062 14741.441770 14389.750118 13263.328785 13070.655755 14556.782187 8686.478354 12849.133679 8790.435672 7516.434625 6395.391071 10899.437324 13979.294832 10890.910752 11136.382582 12184.326411 8463.672522 15281.609181 7938.006337 15311.206743 15733.027862 14827.352377 14886.156877 15575.541266 15155.568199 14973.746107 14716.652128 14531.640462 2423.514290 7273.285449 3436.151773 8574.904535 12851.565829 12153.629052 10374.493528 11140.276299 10509.531349 8396.299478 12964.552839 13791.336085 8491.596405 11992.180773 13860.794468 14928.234377 14770.448317 13021.082878 13399.288883 7452.359981 1770.365992 3009.877272 3421.987733 6462.280438 4282.203248 8843.835773 10017.609740 14167.411628 7919.598796 10016.528468 8582.776192 9893.133786 12593.018080 8442.408202 14734.842375 15473.817285 11207.422979 15003.696372 8225.025293 13497.741617 2349.870416 2595.084281 2478.591027 2473.253883 11000.301553 5393.536078 8591.512901 10278.803632 7431.260768 11075.900971 5502.131719 10985.863508 7409.200786 15547.370009 10031.406938 14974.369813 13169.265963 14005.139158 11648.370765 13020.214788 1938.648860 2159.169960 3639.218087 3499.532216 3543.546582 4812.691042 7606.796055 8127.916269 6660.860115 7361.044173 6334.766878 8124.861662 15454.594430 9649.362244 10295.089564 14555.317376 12911.835666 12854.016509 11488.831592 13122.622531 2512.973767 2816.385775 6212.959037 2549.985974 4329.198908 5935.838900 4581.228836 4801.256943 7021.069581 6509.861267 9503.863562 8318.442823 9417.832564 8901.495906 13491.641101 10022.086251 11049.143926 14493.007962 9139.164652 9045.444740 1586.020062 2261.046264 3299.749593 3242.622319 5729.153073 3789.654133 6919.165011 10481.296349 6135.868760 7702.607573 9414.404337 10773.366285 11844.435433 13074.836773 14495.329311 15144.898726 13129.413669 15140.244296 12133.665839 12545.480369 8393.557920 2950.876604 5155.993941 3020.2592