<VTKFile type="PolyData">
<PolyData>
<Piece NumberOfPoints="6715" NumberOfVerts="6715" NumberOfLines="0" NumberOfStrips="0" NumberOfPolys="0">
<PointData>
<DataArray type="Float64" Name="Pressure" format="ascii">
 17767.501861 16891.023965 15651.497821 15149.347790 15304.146511 15889.493379 16497.636608 16883.621059 16849.737134 15799.765068 12494.063825 7074.260281 4127.978211 3169.216346 4714.915790 6892.581129 10277.725171 14108.822687 14879.157702 13500.093035 11988.685546 12192.788491 13476.985583 14707.504315 15693.537031 16227.322846 16150.407179 15876.373544 15843.039388 15968.453338 16222.528765 16434.661843 16658.850217 17029.578270 17401.191437 17961.092218 18825.952287 19512.335400 19463.440417 19272.338671 19769.215639 21146.494015 22815.126726 23788.069743 23661.626959 23059.436916 22295.461991 21282.730310 20383.396121 19491.857933 19728.830219 20641.857683 21734.509278 22277.288555 21939.285877 21628.928896 21462.006514 21706.276516 22265.796063 23620.474416 25652.081342 26784.399589 26862.568035 26666.877368 26736.546690 26522.897411 26213.442179 26276.880670 27018.498714 28144.195702 29017.488814 29318.305420 29381.133089 29659.689226 30240.960512 31296.078958 32379.658942 32596.999762 31832.788308 30401.882398 29012.431519 27867.598529 25767.614610 23452.658738 22917.789830 24994.383373 28289.673744 29633.916303 30000.582415 29951.265629 29484.747784 28703.922600 27648.435415 26752.469331 26699.701505 26900.347054 26713.620049 25963.318655 25306.369003 24912.058105 24540.226457 24267.256386 24153.734550 24307.711313 24633.606138 24692.553752 24238.961697 23763.574614 23687.842108 23765.852635 23665.820308 23363.184437 23129.235176 23052.287897 23048.896105 23097.514673 23292.264690 23487.862318 23397.278093 22930.963198 22171.954576 21434.913683 20938.713329 20582.210004 20462.969014 20535.080679 20645.231261 20820.654485 21181.007140 21504.624393 21764.749439 21801.246833 21555.042895 21212.868975 21187.822808 21396.514778 21961.863979 22446.355596 22831.585677 22956.487112 23033.388180 23222.091596 23510.835042 23658.380440 23725.189734 23668.461118 23559.505082 23518.213374 23455.698778 23314.967403 23121.529710 23054.339267 23097.245165 23201.233450 23365.249630 23568.172228 23736.873144 23817.083542 23958.974574 23990.251873 23788.275816 23453.710043 23030.773925 22632.049897 22268.866705 21888.101674 21665.261733 21833.018166 22119.704480 22360.205608 22269.753202 22026.950146 21853.565154 21727.157442 21561.924853 21311.602122 21254.600812 21315.595415 21401.550046 21468.443450 21525.353940 21573.750771 21704.088804 21860.584725 21919.481620 21887.754849 21802.970854 21614.339896 21526.425538 21592.569459 21792.655042 21938.979717 22005.989160 22039.246249 22081.829018 22090.467985 21961.517923 21832.536697 21624.310066 20988.753271 20257.502465 19441.889047 18737.089618 17824.928736 16880.981901 16371.519182 16363.433045 16566.234537 16796.669928 16927.922805 16779.354398 16156.973199 14734.689698 12461.318618 10526.179869 9230.808811 8788.942297 9367.612596 11444.454847 13543.857321 14210.329848 14134.341871 14195.423861 14919.327363 15839.064176 16535.512949 16952.240859 16983.879257 16668.755714 16356.097886 16269.524185 16371.487800 16567.691659 16874.776176 17332.663965 17856.758435 18364.608261 18856.911721 19457.977569 19879.971777 19856.571216 19687.418287 20014.689159 21086.380470 22424.704521 23276.086111 23270.216191 22625.190806 21852.263905 20983.439153 20094.614019 19472.252344 19704.447823 20616.069922 21682.513955 22356.788845 22530.363908 22510.686254 22530.199073 22673.033953 23155.244027 24325.944313 25886.780557 27115.412915 27667.803934 27724.175913 27544.852448 27095.316831 26670.368684 26750.332884 27474.516144 28498.130562 29296.663080 29650.185390 29789.563624 30078.301991 30698.881251 31593.090859 32381.983693 32522.895482 31840.996886 30647.922913 29416.209476 28228.429897 26762.526552 25237.094751 24940.664910 26420.846983 28396.804359 29607.768397 29955.428263 29698.312418 29190.573594 28474.946031 27556.318052 26829.483528 26631.332310 26771.554507 26750.790472 26413.750633 26041.455564 25748.161073 25455.685871 25157.430910 24949.144518 24944.630427 25107.782953 25050.228978 24610.923147 24220.008228 24134.001885 24209.449588 24166.909156 23960.352788 23775.375296 23714.233103 23744.059590 23849.778587 24067.339130 24264.326858 24145.096274 23612.538675 22827.558420 22083.436603 21562.839258 21214.929211 21051.060708 21105.549888 21254.572605 21393.050825 21625.500451 21913.555571 22173.395580 22209.507543 22097.173837 21904.533146 21832.088543 22041.544610 22462.753206 22880.880807 23247.452504 23495.482348 23673.818374 23821.468254 23967.100274 24082.282662 24085.052245 23942.719731 23810.404095 23775.304151 23729.216590 23586.488975 23388.670624 23288.596230 23332.243623 23488.925188 23722.385242 23942.654905 24063.523617 24104.610055 24129.492426 24096.939050 23896.973316 23518.104268 23061.955683 22599.413419 22201.342919 21929.076420 21752.976265 21800.982361 22072.296731 22296.594252 22279.166627 22095.318748 21889.182328 21711.523895 21523.237660 21366.657175 21351.782013 21411.113882 21451.131417 21497.749307 21586.663981 21687.373171 21787.445961 21854.083775 21867.807476 21854.566668 21816.456741 21728.603813 21649.187229 21676.461965 21782.730832 21847.165534 21856.516680 21829.869639 21782.943235 21714.959612 21598.375456 21410.914439 21076.512884 20487.192174 19837.683716 19356.143202 20210.096810 19905.226442 19256.735391 18429.275376 17667.176047 17193.067938 17038.967385 17021.237464 17024.459813 16985.937038 16795.857127 16410.858822 15763.690167 14837.215543 13835.572162 12957.997243 12389.701149 12501.613889 13488.624379 14428.734659 14859.910415 15095.827844 15478.052547 16097.440359 16719.725941 17110.915755 17205.965096 17024.134251 16726.557612 16509.073657 16471.793769 16602.969000 16864.863202 17258.259272 17772.478013 18326.261960 18847.674861 19317.839527 19712.521440 19917.516890 19883.685572 19827.372017 20156.488212 21014.337559 22052.630720 22728.998574 22728.822646 22153.633933 21393.745480 20641.079297 19943.412062 19572.865821 19813.732537 20583.461678 21501.083961 22205.884973 22583.775736 22749.380501 22888.325265 23124.655423 23674.474928 24699.614120 25986.517887 27090.663289 27719.174800 27862.302099 27662.280711 27292.031838 27028.018784 27186.585094 27825.331519 28683.269367 29385.259156 29763.010376 29963.920667 30260.309408 30821.942543 31564.913321 32147.894332 32174.505851 31579.392028 30620.676495 29529.099421 28391.131115 27239.496203 26321.158478 26221.177170 27150.116016 28505.871724 29517.767380 29870.223986 29639.783442 29065.244907 28317.135414 27556.700507 26989.085714 26751.284640 26786.727870 26824.047374 26655.219363 26359.316460 26081.096956 25831.444318 25600.234631 25431.024025 25374.756246 25383.172073 25256.350569 24918.795814 24586.720427 24440.926770 24440.008120 24409.208867 24277.409858 24142.404306 24085.048168 24119.685210 24242.896943 24432.662907 24555.248976 24406.445009 23906.498824 23209.282183 22537.774382 22016.914207 21666.313483 21489.884844 21481.319189 21565.203755 21670.102472 21851.979413 22147.810922 22421.514448 22514.093556 22449.643366 22316.273136 22254.456383 22405.050160 22737.958774 23123.087158 23472.207570 23751.073218 23962.278864 24121.516254 24238.231342 24305.045314 24276.896642 24157.233010 24027.302184 23936.463557 23844.490787 23703.671001 23547.394022 23460.839065 23495.125413 23628.776632 23820.015196 24008.548587 24129.151949 24174.468607 24160.370434 24072.349546 23845.280040 23471.101832 23015.060575 22549.271467 22166.591282 21939.045335 21875.902793 21958.606780 22141.476541 22264.484254 22218.397818 22051.502015 21848.921649 21668.477163 21513.143419 21412.273190 21403.006635 21443.180844 21477.671291 21523.083826 21607.276182 21715.866775 21811.422961 21868.316725 21879.639681 21856.431062 21822.379503 21780.636842 21746.556508 21771.548553 21841.484357 21887.085875 21872.183775 21806.270634 21706.154331 21582.165437 21431.841855 21205.678410 20827.576629 20277.430456 19649.150052 19167.501180 18961.029403 20257.502465 20858.549953 21211.496668 20838.578299 20102.036127 19399.454214 18677.662836 17788.663725 16809.102811 15969.102415 15183.675309 14090.212787 12699.926392 11288.224016 10039.393683 8806.106221 7391.705216 5964.285052 5194.632670 4612.623497 3933.502178 2914.159234 2154.929626 1632.447900 1263.149468 1003.684520 822.096736 694.537180 603.863848 537.587817 486.578553 444.416925 406.902190 371.559970 337.169936 303.352055 270.232554 238.193026 207.695238 179.169203 152.950739 129.255289 108.176385 89.699172 73.721627 60.078196 48.562396 38.946405 30.996746 24.485953 19.200548 14.945907 11.548689 8.857444 6.741979 5.091926 3.814859 2.834231 2.087276 1.523016 1.100417 0.786743 0.556101 0.388192 0.267242 0.181106 0.120518 0.078478 0.049749 0.030457 0.017763 0.009617 0.004551 0.001531 -0.000160 -0.001013 -0.001358 -0.001411 -0.001308 -0.001135 -0.000942 -0.000757 -0.000593 -0.000455 -0.000343 -0.000255 -0.000187 -0.000135 -0.000096 -0.000068 -0.000048 -0.000033 -0.000023 -0.000015 -0.000010 -0.000007 -0.000005 -0.000003 -0.000002 -0.000001 -0.000000 19356.143202 19726.630881 20141.292565 20328.227165 20085.406418 19546.334967 18928.895759 18236.997330 17424.497196 16566.420142 15716.694043 14812.279545 13694.306956 12366.872550 11029.288169 9774.426724 8525.743396 7246.035909 6024.939901 5069.753033 4296.464520 3537.986646 2765.077342 2111.755993 1615.247136 1254.831786 999.243869 819.465495 692.848225 602.773280 536.916943 486.197620 444.223023 406.816450 371.525751 337.149717 303.323572 270.184892 238.123131 207.605028 179.063320 152.834913 129.135233 108.057130 89.584731 73.614901 59.981035 48.475747 38.870495 30.931274 24.430255 19.153743 14.907011 11.516693 8.831371 6.720922 5.075064 3.801469 2.823685 2.079038 1.516633 1.095514 0.783009 0.553282 0.386084 0.265682 0.179963 0.119689 0.077884 0.049329 0.030163 0.017562 0.009481 0.004461 0.001473 -0.000197 -0.001036 -0.001371 -0.001417 -0.001311 -0.001136 -0.000942 -0.000756 -0.000592 -0.000454 -0.000342 -0.000254 -0.000186 -0.000134 -0.000096 -0.000068 -0.000047 -0.000033 -0.000023 -0.000015 -0.000010 -0.000007 -0.000005 -0.000003 -0.000002 -0.000001 -0.000001 -0.000000 18961.029403 19120.206623 19438.227275 19755.064468 19871.660156 19685.531374 19249.975597 18676.438511 18002.829178 17236.148244 16408.631824 15534.396227 14571.735982 13453.939194 12194.888417 10897.257406 9625.711247 8375.126573 7145.866763 5998.945544 5012.075971 4169.007041 3403.102743 2696.222450 2089.593569 1610.986680 1255.954004 1001.535022 821.553122 694.412055 603.833680 537.579684 486.576167 444.416181 406.901949 371.559890 337.169909 303.352046 270.232551 238.193025 207.695238 179.169203 152.950739 129.255289 108.176385 89.699172 73.721627 60.078196 48.562396 38.946405 30.996746 24.485953 19.200548 14.945907 11.548689 8.857444 6.741979 5.091926 3.814859 2.834231 2.087276 1.523016 1.100417 0.786743 0.556101 0.388192 0.267242 0.181106 0.120518 0.078478 0.049749 0.030457 0.017763 0.009617 0.004551 0.001531 -0.000160 -0.001013 -0.001358 -0.001411 -0.001308 -0.001135 -0.000942 -0.000757 -0.000593 -0.000455 -0.000343 -0.000255 -0.000187 -0.000135 -0.000096 -0.000068 -0.000048 -0.000033 -0.000023 -0.000015 -0.000010 -0.000007 -0.000005 -0.000003 -0.000002 -0.000001 -0.000001 -0.000000 -0.000000 -0.000000 -0.000000 -0.000000 -0.000000 -0.000000 -0.000000 -0.000000 -0.000000 -0.000000 -0.000000 -0.000000 -0.000000 -0.000000 -0.000000 -0.000000 -0.000000 0.000000 0.000000 0.000000 0.000000 0.000000 0.000000 0.000000 0.000000 0.000000 0.000000 0.000000 0.000000 -0.000000 -0.000000 -0.000000 -0.000000 0.000000 0.000000 0.000000 -0.000000 -0.000000 0.000000 0.000000 0.000000 -0.000000 -0.000000 0.000000 -0.000000 0.000000 0.000000 0.000000 0.000000 0.000000 0.000000 0.000000 0.000000 0.000000 0.000000 0.000000 0.000000 0.000000 0.000000 0.000000 0.000000 0.000000 0.000000 0.000000 0.000000 0.000000 0.000000 0.000000 0.000000 -0.000000 0.000000 0.000000 0.000000 0.000000 0.000000 0.000000 0.000000 0.000000 0.000000 0.000000 0.000000 0.000000 0.000000 -0.000000 0.000000 0.000000 0.000000 0.000000 0.000000 0.000000 0.000000 0.000000 0.000000 0.000000 0.000000 0.000000 0.000000 0.000000 0.000000 -0.000000 0.000000 0.000000 -0.000000 0.000000 0.000000 0.000000 0.000000 -0.000000 -0.000000 -0.000000 -0.000000 -0.000000 -0.000000 -0.000000 -0.000000 -0.000000 -0.000000 -0.000000 -0.000000 -0.000000 -0.000000 -0.000000 -0.000000 -0.000000 -0.000000 -0.000000 -0.000000 -0.000000 -0.000000 -0.000000 0.000000 -0.000000 -0.000000 -0.000000 -0.000000 0.000000 0.000000 0.000000 -0.000000 0.000000 0.000000 0.000000 0.000000 -0.000000 0.000000 0.000000 0.000000 0.000000 0.000000 0.000000 0.000000 0.000000 0.000000 0.000000 -0.000000 -0.000000 -0.000000 -0.000000 -0.000000 -0.000000 -0.000000 -0.000000 -0.000000 -0.000000 -0.000000 -0.000000 -0.000000 -0.000000 -0.000000 -0.000001 -0.000001 -0.000002 -0.000002 -0.000004 -0.000006 -0.000010 -0.000016 -0.000026 -0.000041 -0.000064 -0.000099 -0.000153 -0.000234 -0.000357 -0.000541 -0.000814 -0.001220 -0.001816 -0.002687 -0.003953 -0.005782 -0.008407 -0.012154 -0.017470 -0.024969 -0.035499 -0.050246 -0.070943 -0.100398 -0.144343 -0.214227 -0.265104 -0.000000 -0.000000 -0.000000 -0.000000 -0.000000 -0.000000 -0.000000 -0.000000 -0.000000 -0.000000 -0.000000 -0.000000 -0.000000 -0.000000 -0.000000 -0.000000 -0.000000 -0.000000 0.000000 0.000000 0.000000 0.000000 0.000000 0.000000 0.000000 0.000000 0.000000 0.000000 0.000000 0.000000 0.000000 -0.000000 0.000000 0.000000 -0.000000 0.000000 0.000000 0.000000 0.000000 -0.000000 0.000000 0.000000 0.000000 0.000000 -0.000000 0.000000 0.000000 0.000000 0.000000 0.000000 0.000000 0.000000 0.000000 0.000000 0.000000 0.000000 0.000000 0.000000 0.000000 0.000000 0.000000 0.000000 0.000000 0.000000 0.000000 0.000000 0.000000 0.000000 0.000000 -0.000000 -0.000000 0.000000 0.000000 0.000000 0.000000 -0.000000 0.000000 0.000000 0.000000 -0.000000 -0.000000 0.000000 0.000000 -0.000000 -0.000000 0.000000 0.000000 0.000000 -0.000000 0.000000 0.000000 0.000000 0.000000 -0.000000 0.000000 0.000000 0.000000 0.000000 -0.000000 -0.000000 0.000000 0.000000 0.000000 -0.000000 0.000000 0.000000 0.000000 0.000000 -0.000000 -0.000000 -0.000000 -0.000000 -0.000000 -0.000000 -0.000000 -0.000000 -0.000000 -0.000000 -0.000000 -0.000000 -0.000000 -0.000000 -0.000000 -0.000000 -0.000000 -0.000000 -0.000000 -0.000000 0.000000 -0.000000 -0.000000 -0.000000 -0.000000 0.000000 -0.000000 0.000000 0.000000 -0.000000 -0.000000 0.000000 0.000000 0.000000 -0.000000 -0.000000 0.000000 0.000000 0.000000 -0.000000 -0.000000 0.000000 0.000000 0.000000 0.000000 -0.000000 -0.000000 -0.000000 -0.000000 -0.000000 -0.000000 -0.000000 -0.000000 -0.000000 -0.000000 -0.000000 -0.000000 -0.000000 -0.000000 -0.000000 -0.000000 -0.000001 -0.000001 -0.000002 -0.000002 -0.000004 -0.000006 -0.000010 -0.000016 -0.000026 -0.000040 -0.000063 -0.000098 -0.000151 -0.000232 -0.000354 -0.000537 -0.000809 -0.001211 -0.001803 -0.002669 -0.003928 -0.005746 -0.008357 -0.012083 -0.017367 -0.024816 -0.035254 -0.049789 -0.069900 -0.097516 -0.134796 -0.181916 -0.218362 -0.229556 -0.000000 -0.000000 -0.000000 -0.000000 -0.000000 -0.000000 -0.000000 -0.000000 -0.000000 -0.000000 -0.000000 -0.000000 -0.000000 -0.000000 -0.000000 -0.000000 -0.000000 0.000000 0.000000 0.000000 0.000000 0.000000 0.000000 0.000000 0.000000 0.000000 0.000000 0.000000 0.000000 0.000000 0.000000 0.000000 0.000000 0.000000 0.000000 0.000000 0.000000 0.000000 0.000000 0.000000 0.000000 0.000000 0.000000 0.000000 0.000000 0.000000 0.000000 0.000000 0.000000 0.000000 0.000000 0.000000 0.000000 0.000000 0.000000 0.000000 0.000000 0.000000 0.000000 0.000000 0.000000 0.000000 0.000000 0.000000 0.000000 0.000000 0.000000 0.000000 0.000000 0.000000 -0.000000 0.000000 0.000000 0.000000 0.000000 0.000000 0.000000 0.000000 0.000000 0.000000 0.000000 -0.000000 0.000000 0.000000 -0.000000 0.000000 0.000000 0.000000 0.000000 0.000000 0.000000 0.000000 0.000000 0.000000 -0.000000 0.000000 0.000000 0.000000 0.000000 -0.000000 -0.000000 0.000000 0.000000 0.000000 0.000000 0.000000 0.000000 0.000000 -0.000000 -0.000000 -0.000000 -0.000000 -0.000000 -0.000000 -0.000000 -0.000000 -0.000000 -0.000000 -0.000000 -0.000000 -0.000000 -0.000000 -0.000000 -0.000000 -0.000000 -0.000000 -0.000000 -0.000000 0.000000 0.000000 0.000000 -0.000000 0.000000 0.000000 0.000000 0.000000 0.000000 0.000000 0.000000 -0.000000 -0.000000 -0.000000 0.000000 0.000000 -0.000000 -0.000000 -0.000000 0.000000 0.000000 -0.000000 0.000000 0.000000 0.000000 0.000000 -0.000000 0.000000 -0.000000 -0.000000 -0.000000 -0.000000 -0.000000 -0.000000 -0.000000 -0.000000 -0.000000 -0.000000 -0.000000 -0.000000 -0.000000 -0.000000 -0.000001 -0.000001 -0.000002 -0.000002 -0.000004 -0.000006 -0.000010 -0.000016 -0.000026 -0.000041 -0.000064 -0.000099 -0.000153 -0.000234 -0.000357 -0.000541 -0.000814 -0.001220 -0.001816 -0.002687 -0.003953 -0.005782 -0.008407 -0.012151 -0.017459 -0.024933 -0.035377 -0.049836 -0.069563 -0.095762 -0.128606 -0.164660 -0.195597 -0.209146 -0.210705 -0.265104 -0.394063 -0.661140 -0.971320 -1.348694 -1.823100 -2.424909 -3.189275 -4.157825 -5.379938 -6.913911 -8.828070 -11.201812 -14.126523 -17.706298 -22.058387 -27.313252 -33.614123 -41.115931 -49.983472 -60.388671 -72.506819 -86.511660 -102.569269 -120.830692 -141.423398 -164.441695 -189.936369 -217.903911 -248.275810 -280.908494 -315.574533 -351.955810 -389.639410 -428.117159 -466.790043 -504.979127 -541.944911 -576.916801 -609.133272 -637.891208 -662.601184 -682.845869 -698.440343 -709.482310 -716.340504 -719.671190 -720.688446 -722.242274 -731.305649 -758.397801 -827.605441 -888.405523 -902.822811 -809.378532 -681.377438 -592.283827 -593.124474 -609.260937 -853.490389 -1525.689184 -1950.979280 -1663.183186 -723.761277 -316.346890 -411.417955 -734.232625 -1147.116412 -1184.385741 -754.207933 -767.138462 -1375.595116 -1836.755080 -1749.128632 -832.215941 115.820233 664.131575 1133.264752 1421.847085 1694.566873 2011.817766 2459.698880 2735.707129 2884.711906 2943.224555 3189.764634 3700.303692 4455.813294 5447.179566 6354.134810 7100.617686 7629.301138 8151.781829 8902.296270 10102.821636 11227.684535 12099.078982 12956.093582 14439.938799 16473.851072 17767.501861 -0.229556 -0.288987 -0.435829 -0.673685 -0.971830 -1.345355 -1.817648 -2.417647 -3.180061 -4.146349 -5.365807 -6.896669 -8.807212 -11.176789 -14.096751 -17.671172 -22.017296 -27.265605 -33.559374 -41.053617 -49.913251 -60.310372 -72.420490 -86.417628 -102.468196 -120.723629 -141.311836 -164.327603 -189.822212 -217.792651 -248.170881 -280.813742 -315.494132 -351.894141 -389.600896 -428.106047 -466.810111 -505.033295 -542.034760 -577.042061 -609.291367 -638.076977 -662.806772 -683.060706 -698.651937 -709.683521 -716.551015 -719.893550 -720.829182 -721.871206 -729.258278 -751.654078 -797.615568 -860.596959 -898.591731 -854.003658 -768.125562 -714.655185 -714.685331 -808.479689 -1102.251635 -1503.099993 -1731.942575 -1572.748125 -1050.274802 -665.827887 -738.824798 -1098.730750 -1409.589837 -1488.805443 -1335.955681 -1253.707605 -1413.730107 -1587.920625 -1446.341951 -870.680976 -145.902917 339.051476 655.938652 1015.700538 1437.623287 1909.055207 2443.231367 2914.486875 3235.252641 3472.889207 3808.154216 4321.753771 5048.198888 5922.266178 6770.248509 7520.931558 8042.939944 8585.423195 9425.024965 10557.276547 11726.432737 12735.416514 13696.080332 15076.592570 16877.316885 18415.058946 19441.889047 -0.210705 -0.233058 -0.309720 -0.464186 -0.686561 -0.978689 -1.350898 -1.823757 -2.425104 -3.189333 -4.157842 -5.379943 -6.913912 -8.828070 -11.201812 -14.126523 -17.706298 -22.058387 -27.313252 -33.614123 -41.115931 -49.983472 -60.388671 -72.506819 -86.511660 -102.569269 -120.830692 -141.423398 -164.441695 -189.936369 -217.903911 -248.275810 -280.908494 -315.574533 -351.955810 -389.639410 -428.117159 -466.790043 -504.979128 -541.944912 -576.916803 -609.133268 -637.891176 -662.601089 -682.845854 -698.442504 -709.501851 -716.435241 -719.875603 -720.926459 -722.013728 -728.517269 -749.170950 -788.254906 -837.022708 -865.060742 -838.343245 -770.335448 -718.304862 -735.817488 -883.962900 -1175.183897 -1483.430764 -1625.314800 -1489.748181 -1152.529532 -922.863545 -1023.499581 -1321.918029 -1578.115449 -1657.222247 -1571.226314 -1474.331131 -1470.640044 -1460.706602 -1268.051011 -821.127586 -267.703391 184.854486 540.172554 924.167301 1386.785089 1920.432744 2491.523810 3022.665073 3441.628728 3797.398527 4205.343133 4753.110919 5459.899508 6250.368799 7029.348229 7710.998207 8291.952821 8932.176282 9779.190673 10833.310234 11952.132462 13022.292535 14135.468309 15508.650097 17124.468114 18695.626979 19776.616007 20210.096810 5401.250356 2592.813148 3747.776718 3061.371759 3782.421207 2974.972373 4811.715286 4842.399769 5750.305136 6008.231604 7221.568594 5890.109874 4801.181258 8106.745142 9047.082756 9430.256630 10698.111797 12783.044286 13096.559471 16426.696128 3672.565015 2601.364567 2557.850624 3517.392607 4585.732733 4278.613954 3119.676106 4639.892134 4256.019472 7915.655466 4755.925720 7158.415116 10115.869637 8297.345416 7204.829116 11630.784035 11335.202756 12095.778915 13635.018882 14144.784595 6055.773594 3547.314832 2603.549818 3222.481918 4296.776869 5708.270346 3789.796138 4612.926754 4613.675289 6096.009051 6698.618556 7355.679338 4242.725721 10454.868296 12278.708519 14156.364895 10871.116265 13210.383448 14145.858785 14719.750190 3979.330614 8525.943622 46037.038676 5041.634029 11164.253615 3375.826903 5369.781804 5874.804450 6558.419994 11493.136258 12267.060479 12803.933150 7051.185270 8826.093221 14454.881382 13055.995945 7901.243786 14581.714813 13660.881641 14737.432955 -692.828129 3497.618437 38244.905192 6026.249338 6357.089650 -5840.877565 1349.711510 78918.119224 5796.497151 5960.161817 3598.738860 5447.931029 4618.258288 9237.032772 8658.691069 12705.507638 9725.372194 3422.705133 15983.548867 16016.344804 5017.934591 13379.814994 4047.473380 4400.416840 72778.601240 3495.625336 3502.993608 4099.948608 8419.120049 8422.013001 -742.240427 1882.531526 11028.208306 4352.817573 11808.931957 15947.370332 12307.695002 14758.620686 16176.646403 11198.617469 3812.364686 8195.322284 8634.190866 4734.053907 7713.422543 26778.315801 3166.044325 4245.443510 8586.330124 26986.027069 1097.568278 5605.675623 4715.009075 10165.184561 2101.451346 2638.418875 13760.987157 14356.484639 16861.467456 16470.021697 -2323.781206 7471.706382 10895.132396 3501.002001 8505.303400 -811.126556 4214.011516 4265.223622 4918.728062 17999.673390 5282.298291 4699.223257 13246.233592 3797.240473 5201.722541 11100.360303 -2210.918407 10956.983618 1355.477943 -719.725375 3303.702101 5204.424916 5159.302624 4551.179001 74988.872597 7206.321365 4861.792042 1567.762085 15538.182844 4494.684009 17885.220555 9923.153796 5357.441711 402.762005 -2538.071477 9903.695090 22311.296860 13589.027845 -2287.747876 15971.058893 2292.700458 4705.492383 5513.838151 12615.070971 4561.106941 1125.731959 26577.557471 70020.488033 2154.886657 2830.958093 29093.968263 43036.174850 8188.497508 5447.403119 6121.010005 -1270.084897 13669.873294 11852.300909 9638.925388 -880.985984 12585.497780 75270.880852 59081.955572 5485.391343 9975.082100 5966.654461 4345.899441 5940.037865 19895.422584 25089.520026 10790.238861 5206.229181 -5023.091944 6609.750318 8911.649207 9119.531816 13355.089745 1667.870896 22577.691961 17981.742900 6150.629394 20564.719076 -3682.931874 10417.156613 64368.435473 6969.822381 4025.033240 3662.948941 13150.118306 5681.803042 3346.489614 15489.295613 6773.383578 5985.379804 9382.098308 5577.836199 7000.946771 7902.126519 7721.379093 11718.777094 63897.695660 10704.863687 3538.085347 6440.386119 13332.233157 495.119139 1486.206217 3930.228526 1215.967623 7694.133243 4918.101323 11004.958871 2649.639277 5449.127557 12191.830327 18547.759141 3367.662326 10526.872336 14237.197133 14074.682922 3113.383253 27309.495590 6636.512892 2298.102791 19492.355001 9857.849091 3221.226750 12202.314408 1186.550985 3970.598683 2287.648596 4314.702623 6410.149834 13676.057137 3418.127244 13223.779980 13825.359909 13432.170425 32437.782958 1769.131529 3638.506207 6524.412168 6147.379173 5700.616117 6340.119964 5198.786131 8028.416897 7331.454356 2665.951910 4842.277239 11758.012363 9440.587538 12694.221096 10942.518015 9181.343275 14971.634654 11280.152311 12759.989680 11300.097824 13339.855409 5179.526846 5881.781576 1163.297054 19432.468187 8640.550974 8885.302691 8701.036030 8042.871547 7809.165616 6710.365292 10070.749085 10341.666670 8813.691814 10228.176244 11484.456911 12539.193588 14717.532251 13487.853231 10623.209553 13989.134003 7142.472270 12767.631600 7087.934419 9079.655333 5123.704132 68828.915501 7900.708672 5577.931372 7960.666582 9365.001670 15063.453845 8587.416505 13031.695813 11765.399427 14592.525611 15464.786300 12878.593878 10502.218516 16066.358479 18508.973291 11307.476626 3542.233270 6046.403807 6191.224436 7057.319196 8602.139919 7701.026556 7104.268053 9679.707316 7058.316411 9649.110887 14826.103155 14026.325703 16255.132461 14167.878112 13618.114903 14704.936805 11113.969694 13673.350505 16923.927514 8708.656416 9227.517584 3543.830559 7826.055909 10270.948274 11181.998703 12114.436993 15733.515255 12719.081656 13002.499164 17692.183238 17555.481884 12993.660952 11449.386486 12618.666886 15477.662650 10986.244504 15066.668454 14731.524128 10781.214944 10200.452569 6907.425986 6369.279699 9035.220846 11077.730688 12172.363546 11401.050106 13131.163127 7181.764440 14697.842052 18453.444150 18843.790219 19226.843074 12078.530996 14297.646850 16389.287621 14163.854436 12650.079855 17665.211256 9366.523098 8885.015048 13376.706663 9606.967276 7785.475944 13568.543134 9633.511751 13891.743200 14829.856068 11281.986074 13878.170590 17485.593795 14856.623479 16554.657405 16292.679283 19206.101499 17111.179048 17461.103828 18486.425605 16216.866015 9763.590480 9289.720131 11056.090903 9650.028814 10000.605192 11937.840061 10915.730663 14481.278779 10506.943796 15359.988744 12735.753908 15471.367920 12145.387983 15069.690634 20128.071607 16671.652726 20205.735291 17748.940155 15012.918746 11980.255712 11818.861132 13381.638541 10075.168569 10259.663099 11516.528614 10453.288215 12177.250495 10876.920206 14916.102879 10381.003059 13506.257236 15849.798469 16911.443508 16351.404656 19210.897281 17319.405141 19868.627552 16389.015872 19744.817760 14051.258425 14942.048400 11905.588344 10795.022054 12968.846156 10327.031852 9966.513212 9816.706833 12802.187810 13361.610752 15491.667455 15418.093067 12568.420093 14384.443900 19921.834060 14981.779742 18624.647505 18199.662341 15448.686800 19506.676886 13449.525802 15143.875249 11602.894554 11401.525066 13513.358100 10373.009964 10923.313254 12203.056505 15189.474406 12181.706702 16714.472752 13684.744119 16634.316391 17617.042905 17474.390621 21486.758942 18063.284322 20674.422760 20799.899076 21736.430143 15263.053822 16270.632990 10225.797614 15738.913206 16320.558178 12040.145188 15832.126482 13736.311142 12064.605639 18086.135393 10461.616022 16464.903956 15950.042434 18897.944628 19577.622365 19674.008725 20041.195924 19088.739052 18794.336918 20612.757279 18127.368160 17202.827045 15204.407205 12499.717876 10067.830395 10955.023404 9706.233141 14576.367315 12696.286355 15302.732558 17268.505641 17712.160303 19352.526654 19585.068720 18169.116921 19322.533237 20215.563200 18781.445536 20068.019134 22182.806041 15483.996758 15250.296302 12238.963841 10013.711053 11961.666544 10489.718222 10805.697834 12375.208466 13723.518427 17328.610435 13629.722526 20280.157476 18581.365641 20137.511486 15354.390404 17595.556262 19113.735136 21077.126732 22001.245290 19281.716826 16315.225515 22054.422388 9214.994283 11459.058191 5776.532514 12262.334559 11969.548823 14223.704603 15756.522840 13790.671603 14421.141308 17345.873211 14032.040452 14348.190348 19899.297219 19713.488007 19985.747698 19750.249777 19847.892880 20059.942888 20139.864019 20234.268039 1224.685618 11273.305901 8169.258375 11656.450546 11682.368264 12355.761219 11999.978724 13852.597107 16223.278196 17429.074439 12698.005165 18530.349218 17443.126754 20088.923753 20402.647908 20255.557184 19436.939848 22111.953624 15689.560273 15488.733471 2176.682263 5583.820758 1578.601503 9113.819696 9044.545524 13061.894518 12193.733994 12028.519899 13023.927240 17362.238642 16645.564372 16471.231082 16970.449280 18175.795749 20095.228768 20531.424040 21138.576691 21718.080774 15860.879222 18263.079372 2802.688139 3469.185841 2127.829068 5583.469195 8798.247268 8059.036602 15239.512166 10762.346568 13891.269329 14452.087863 15438.591391 13167.037203 14809.909005 18513.898583 18952.802498 19987.224377 21077.629463 19335.024115 22007.447658 23790.532755 2353.036797 2220.363464 1740.938429 3977.855974 5232.971553 13441.901709 9708.987276 10730.320570 14242.172948 16128.017162 15323.842642 16561.883049 21465.821792 18518.852928 19633.300373 20528.899743 20526.180661 19853.090161 15505.960689 18948.539285 1226.828297 5218.361125 3020.980247 3143.093737 5892.074621 12277.370546 10257.831159 14577.948988 14281.754501 13720.356579 14922.661806 17346.597511 15331.966109 17216.464548 20039.370007 19126.854738 19663.173144 20374.352371 17597.368820 17146.052980 2249.629186 1355.752218 2164.989848 4253.042566 5773.217189 11479.590884 9099.484488 9195.783646 16500.606074 16684.423790 18115.369546 19268.311213 15366.017265 20460.627127 21660.261996 23008.132355 19661.225726 20427.253718 20511.242409 20001.180081 1373.776754 2230.665582 1507.873626 5893.712194 6696.236787 8883.964690 10070.106015 10344.944976 11506.472386 14066.259583 16238.589065 17007.333612 19627.479847 17767.797259 18147.634756 22237.399994 20052.850091 21838.229161 19789.004369 18553.896710 -12744.869886 3228.147156 1023.612345 2389.882964 6756.