<VTKFile type="PolyData">
<PolyData>
<Piece NumberOfPoints="6715" NumberOfVerts="6715" NumberOfLines="0" NumberOfStrips="0" NumberOfPolys="0">
<PointData>
<DataArray type="Float64" Name="Pressure" format="ascii">
 32673.314545 34487.024453 36341.802322 37369.861050 37916.021629 38268.791824 38763.212707 39605.467019 39649.483596 39212.639411 39251.629421 40197.673375 40163.795868 38878.279873 34881.153857 31375.598379 29040.129404 29368.368532 31055.907860 32493.078795 32380.268965 31132.552244 29837.506407 28376.105629 26476.133600 26044.084682 27688.928034 29828.773974 30559.695157 29598.999066 29654.139198 32043.428489 34752.281361 34817.583737 32737.564995 31022.212108 29718.942643 28547.832625 27923.490170 26745.835999 25601.464445 25028.733526 26034.439110 26748.109748 25223.492492 23974.840299 23416.155670 23592.721016 23877.661800 24977.174482 26423.060128 26432.199379 24428.730721 22477.904356 21722.575039 21649.778043 20796.181979 20560.484757 20807.617811 21139.321279 21195.505785 20207.607962 19059.127495 18963.526737 19926.031677 20748.921310 21243.499620 20916.325754 20869.182030 20909.053188 21632.771076 22512.595975 22819.516868 22132.142672 20765.612081 19569.691883 19521.988054 20575.196177 22388.760913 23945.274699 24373.165598 23732.543555 21750.455948 19550.603102 18761.157469 19682.581791 20927.038943 21577.456305 21053.605651 20242.595857 19615.040523 19056.997718 18691.164065 18276.052979 18332.796462 18565.882177 18643.138626 18549.678962 18363.221341 18108.516341 17963.966493 18487.892683 19309.804627 19605.220008 19339.231696 18749.166596 18328.819335 18159.832040 18373.989510 19037.817283 19670.565318 20283.246226 20049.043709 19779.947623 19761.570005 19577.566840 19152.459749 18657.177043 18566.534118 18789.168281 18678.457478 18361.819650 18079.082336 17691.874723 17394.057814 16924.362255 16517.863616 16535.534803 16794.952760 16857.810673 16423.035889 15956.876157 15659.410939 15768.545368 15760.380186 15989.680006 16257.647665 16131.426569 15583.086655 14971.164832 14494.401749 14198.039549 14002.456836 13713.179347 13267.783294 12829.659569 12509.256373 12575.682278 12957.417852 13385.514783 13540.648918 13378.980858 13048.297339 12858.775124 13004.319414 13362.379038 13574.590629 13602.396538 13585.022461 13655.812167 13779.984636 13873.430773 13981.732768 14177.675534 14464.438927 14403.422469 14140.846712 13758.384596 13663.416928 14006.882235 14634.985085 15057.715278 15132.736412 14709.711944 14272.594369 13805.687706 13455.663680 13437.002793 13803.406096 14039.667351 13889.896436 13638.254218 13352.712464 13097.944842 12853.631614 12526.558816 12386.356214 12366.912779 12312.544132 12121.898832 11884.738055 11657.958328 11609.647601 11538.154124 11437.997889 11176.191674 10921.993633 10643.906421 10384.666849 10261.468177 10231.137495 29718.648622 30979.761068 32479.329176 33942.730200 35102.060375 36046.088880 36710.966416 37489.200443 38219.140709 38334.735730 37826.883343 36893.974165 36416.530957 36544.275180 35937.710975 33831.186876 31746.588670 30568.191017 30643.899537 30990.179770 30845.493398 30374.228501 29570.915772 28458.893731 27222.398003 26086.918183 26130.390814 27436.885353 28968.888910 29206.053948 27849.576796 27643.373119 29233.969284 30774.729103 30642.551597 29649.388815 28730.996248 27870.801722 27233.965065 26641.199906 25930.885560 24993.623595 24350.985259 24275.246336 24274.323340 23606.998553 22382.214287 21987.001236 21965.882239 21949.316974 22730.270818 24027.134001 24057.080932 22383.459025 20755.978455 20275.153849 20434.838580 20456.166077 20329.094161 20547.819740 20940.427417 20653.227351 19849.102681 19401.053329 19403.658454 19701.541652 20109.257641 20125.233998 20060.388072 20125.882659 20455.464811 20941.013842 21358.386504 21291.028276 20581.191550 19499.747590 18649.457596 18378.433708 18840.913291 19871.242156 20671.439290 20910.143572 20360.639257 19121.891364 17910.249352 17436.345181 18235.491289 19443.469076 19805.979868 19448.660074 18772.848420 18236.828598 17948.334205 17591.897148 17157.199285 16975.328329 17159.692108 17329.804720 17350.410431 17289.160585 17119.003885 17179.984273 17778.812796 18419.644311 18718.604643 18544.680543 17899.882249 17165.893110 16730.047597 16797.326820 17244.571951 17837.230175 18158.573260 17993.291826 17620.990863 17422.573497 17372.437206 16993.558379 16641.142653 16770.028123 16913.877082 16752.199176 16398.147623 15841.555557 15275.891777 14950.039991 14716.838411 14503.887761 14601.239610 15142.255118 15222.944412 14710.466842 14267.801592 14052.058734 13934.154453 13933.413380 14019.864770 14217.409323 14188.751694 13820.336653 13405.460606 13045.300952 12844.441963 12791.428798 12673.057582 12373.480349 12006.791210 11799.180797 11938.408490 12338.823822 12799.233812 13061.709754 12998.633883 12837.971789 12806.664087 12951.861336 13133.046021 13158.467685 13043.346958 12951.813252 13030.144743 13187.942489 13261.374479 13254.015641 13329.803611 13514.452572 13545.659741 13338.293148 13146.089542 13153.534453 13458.443811 14032.061889 14460.201052 14492.177053 14168.875184 13639.318241 13116.161282 12750.997537 12687.269201 12867.405355 12970.909496 12836.379737 12536.311426 12333.065318 12142.208339 11854.497486 11563.122304 11416.742525 11399.871255 11469.758964 11519.965994 11479.437024 11376.202686 11275.790519 11111.203294 10906.841152 10754.533351 10630.472803 10520.112895 10413.248794 10344.220416 10383.140538 10505.330803 28382.476726 28965.059493 30089.605992 31398.748456 32732.524162 33991.237515 35058.778206 35875.432520 36743.066842 37682.244089 38039.568701 37435.112346 36319.892680 35114.187713 34151.981728 33228.457148 32042.787038 31037.240799 30769.403289 31076.202941 31058.691501 30588.861408 30039.384822 29439.737444 28574.267877 27456.955558 26513.978152 26534.398711 27606.121412 28507.678957 28124.147078 27170.413973 26983.519588 27840.235189 28607.977650 28419.585338 27742.002340 27276.813913 26749.250097 26272.890956 26043.864331 25610.136366 24875.386392 24380.678843 24039.251241 23548.217540 22742.712019 21963.553093 21503.048635 21011.487711 20850.938175 21355.181611 22121.888239 22136.936727 21028.300700 19846.551158 19605.474854 20013.963096 20284.840389 20328.583695 20602.464777 20837.375025 20535.549790 19955.856215 19692.135869 19829.909459 19991.456555 19903.850311 19694.614099 19746.889170 19941.595488 20218.678736 20415.316921 20450.245018 20280.791319 19820.954639 19064.903303 18252.410496 17877.024811 18079.355691 18534.002043 18908.418593 18980.505269 18549.446108 17731.271911 17025.074827 16876.134731 17416.524975 18262.642389 18712.672024 18561.682665 18054.160462 17635.725619 17303.699952 16849.865535 16452.745046 16234.061888 16276.263897 16442.220768 16550.838156 16575.287311 16557.480167 16673.561182 17127.109870 17788.226472 18156.402808 17887.895732 17171.722997 16353.821965 15784.462178 15735.851928 16070.126215 16427.092335 16527.413388 16429.836282 16226.592720 16025.850101 15903.114808 15758.227581 15641.465473 15692.651995 15723.904762 15507.305420 14908.614448 14150.547730 13648.130502 13358.144442 13101.748856 12983.768615 13228.508731 13627.165788 13674.840927 13420.666726 13211.610354 13094.630925 12945.588505 12844.133333 12812.101004 12895.984403 12955.939683 12765.488452 12383.266129 12067.423148 12000.346032 12067.583681 12036.764511 11829.984366 11566.877153 11468.163784 11625.672500 11977.105200 12369.374589 12636.538380 12682.125551 12611.843239 12626.297850 12767.030068 12866.870429 12789.729926 12591.916454 12481.962398 12562.367555 12736.216029 12814.102698 12784.924086 12786.494526 12847.175490 12890.826224 12808.599902 12697.664896 12717.674853 13006.811117 13495.974871 13886.734585 13948.760680 13712.208038 13282.238584 12788.170369 12363.242360 12221.683808 12322.914741 12323.853655 12069.061232 11779.681821 11658.556566 11559.351670 11294.343224 10970.932694 10780.959797 10817.231727 10986.509460 11124.345095 11157.636729 11089.693768 10942.663014 10762.308429 10522.351737 10339.725136 10281.316327 10286.921612 10275.997529 10297.005039 10439.535828 10631.946156 10737.634730 10231.137495 9938.881265 9493.248397 8992.196947 8425.706748 7683.289356 7017.624375 6412.166613 5760.209474 5103.906376 4486.403278 3871.515761 3439.294570 2975.786543 2217.042141 1382.643780 1028.313665 834.780648 105.359547 -752.166185 -720.623065 -103.623943 416.144376 709.114918 865.925672 925.535133 915.312254 858.843998 775.683424 680.513337 583.651342 491.752037 408.564065 335.713228 273.410768 221.027115 177.513311 141.680929 112.367243 88.517785 69.215965 53.682890 41.263262 31.407022 23.651788 17.608124 12.947963 9.395674 6.721038 4.733441 3.276814 2.225003 1.477466 0.955259 0.597347 0.357284 0.200290 0.100749 0.040115 0.005197 -0.013211 -0.021399 -0.023569 -0.022447 -0.019747 -0.016497 -0.013276 -0.010378 -0.007922 -0.005925 -0.004353 -0.003147 -0.002242 -0.001575 -0.001092 -0.000748 -0.000506 -0.000338 -0.000224 -0.000146 -0.000095 -0.000061 -0.000038 -0.000024 -0.000015 -0.000009 -0.000006 -0.000003 -0.000002 -0.000001 -0.000001 -0.000000 -0.000000 -0.000000 -0.000000 -0.000000 -0.000000 -0.000000 -0.000000 -0.000000 -0.000000 10505.330803 10235.492212 9796.374259 9277.848345 8718.077758 8067.902369 7349.556837 6636.372907 5991.903514 5386.573225 4750.690752 4106.372998 3507.669294 3014.601060 2522.505273 1862.821641 1208.346622 810.617160 523.666256 83.008012 -315.638640 -263.886284 113.063714 477.619441 729.841825 875.035850 930.362404 917.889220 860.165336 776.240658 680.576438 583.408594 491.341910 408.084446 335.228016 272.957209 220.623236 177.164583 141.385563 112.119929 88.312052 69.045475 53.542017 41.147251 31.311926 23.574325 17.545529 12.897868 9.356023 6.690032 4.709510 3.258596 2.211333 1.467361 0.947905 0.592084 0.353583 0.197737 0.099026 0.038981 0.004472 -0.013657 -0.021660 -0.023709 -0.022513 -0.019768 -0.016493 -0.013260 -0.010357 -0.007900 -0.005905 -0.004336 -0.003133 -0.002231 -0.001566 -0.001086 -0.000743 -0.000503 -0.000336 -0.000222 -0.000145 -0.000094 -0.000060 -0.000038 -0.000024 -0.000015 -0.000009 -0.000005 -0.000003 -0.000002 -0.000001 -0.000001 -0.000000 -0.000000 -0.000000 -0.000000 -0.000000 -0.000000 -0.000000 -0.000000 -0.000000 -0.000000 -0.000000 10737.634730 10588.789850 10217.277178 9670.466494 9088.322506 8487.958295 7817.556547 7086.145219 6379.188263 5741.332301 5144.976033 4543.845202 3923.976070 3325.096102 2779.561754 2239.675328 1667.674991 1145.068771 754.890906 442.349205 144.199960 -45.780831 5.549035 242.464628 517.752894 739.280244 875.722895 928.983225 916.403996 859.159617 775.777446 680.542518 583.660588 491.754882 408.564901 335.713475 273.410845 221.027140 177.513319 141.680932 112.367244 88.517785 69.215965 53.682890 41.263262 31.407022 23.651788 17.608124 12.947963 9.395674 6.721038 4.733441 3.276814 2.225003 1.477466 0.955259 0.597347 0.357284 0.200290 0.100749 0.040115 0.005197 -0.013211 -0.021399 -0.023569 -0.022447 -0.019747 -0.016497 -0.013276 -0.010378 -0.007922 -0.005925 -0.004353 -0.003147 -0.002242 -0.001575 -0.001092 -0.000748 -0.000506 -0.000338 -0.000224 -0.000146 -0.000095 -0.000061 -0.000038 -0.000024 -0.000015 -0.000009 -0.000006 -0.000003 -0.000002 -0.000001 -0.000001 -0.000000 -0.000000 -0.000000 -0.000000 -0.000000 -0.000000 -0.000000 -0.000000 -0.000000 -0.000000 -0.000000 -0.000000 -0.000000 -0.000000 -0.000000 -0.000000 -0.000000 0.000000 0.000000 0.000000 -0.000000 -0.000000 0.000000 0.000000 0.000000 -0.000000 -0.000000 0.000000 0.000000 0.000000 0.000000 0.000000 0.000000 0.000000 0.000000 0.000000 0.000000 0.000000 0.000000 0.000000 -0.000000 -0.000000 -0.000000 -0.000000 0.000000 0.000000 0.000000 -0.000000 -0.000000 0.000000 0.000000 0.000000 -0.000000 -0.000000 0.000000 -0.000000 0.000000 0.000000 0.000000 0.000000 0.000000 0.000000 0.000000 0.000000 0.000000 0.000000 0.000000 0.000000 0.000000 0.000000 0.000000 0.000000 0.000000 0.000000 0.000000 0.000000 0.000000 0.000000 0.000000 0.000000 -0.000000 0.000000 0.000000 0.000000 0.000000 0.000000 0.000000 0.000000 0.000000 0.000000 0.000000 0.000000 0.000000 0.000000 -0.000000 0.000000 0.000000 0.000000 0.000000 0.000000 0.000000 0.000000 0.000000 0.000000 0.000000 0.000000 0.000000 0.000000 0.000000 0.000000 -0.000000 0.000000 0.000000 -0.000000 0.000000 0.000000 0.000000 0.000000 -0.000000 -0.000000 -0.000000 -0.000000 -0.000000 -0.000000 -0.000000 -0.000000 -0.000000 -0.000000 -0.000000 -0.000000 -0.000000 -0.000000 -0.000000 -0.000000 -0.000000 -0.000000 -0.000000 -0.000000 -0.000000 -0.000000 -0.000000 0.000000 -0.000000 -0.000000 -0.000000 -0.000000 0.000000 0.000000 0.000000 -0.000000 0.000000 0.000000 0.000000 0.000000 -0.000000 0.000000 0.000000 0.000000 0.000000 0.000000 0.000000 0.000000 0.000000 0.000000 0.000000 0.000000 0.000000 0.000000 0.000000 0.000000 -0.000000 0.000000 0.000000 -0.000000 -0.000000 -0.000000 -0.000000 -0.000000 -0.000000 -0.000000 -0.000000 -0.000000 -0.000000 -0.000000 -0.000000 -0.000000 -0.000000 -0.000000 -0.000000 -0.000000 -0.000000 -0.000000 -0.000001 -0.000001 -0.000002 -0.000004 -0.000007 -0.000012 -0.000021 -0.000035 -0.000059 -0.000099 -0.000164 -0.000270 -0.000440 -0.000711 -0.001142 -0.001824 -0.002906 -0.004655 -0.007630 -0.013032 -0.017260 -0.000000 -0.000000 -0.000000 -0.000000 -0.000000 0.000000 0.000000 -0.000000 0.000000 0.000000 0.000000 0.000000 -0.000000 0.000000 0.000000 0.000000 0.000000 -0.000000 0.000000 0.000000 0.000000 0.000000 0.000000 0.000000 0.000000 0.000000 0.000000 0.000000 0.000000 0.000000 0.000000 -0.000000 0.000000 0.000000 -0.000000 0.000000 0.000000 0.000000 0.000000 -0.000000 0.000000 0.000000 0.000000 0.000000 -0.000000 0.000000 0.000000 0.000000 0.000000 0.000000 0.000000 0.000000 0.000000 0.000000 0.000000 0.000000 0.000000 0.000000 0.000000 0.000000 0.000000 0.000000 0.000000 0.000000 0.000000 0.000000 0.000000 0.000000 0.000000 -0.000000 -0.000000 0.000000 0.000000 0.000000 0.000000 -0.000000 0.000000 0.000000 0.000000 -0.000000 -0.000000 0.000000 0.000000 -0.000000 -0.000000 0.000000 0.000000 0.000000 -0.000000 0.000000 0.000000 0.000000 0.000000 -0.000000 0.000000 0.000000 0.000000 0.000000 -0.000000 -0.000000 0.000000 0.000000 0.000000 -0.000000 0.000000 0.000000 0.000000 0.000000 -0.000000 -0.000000 -0.000000 -0.000000 -0.000000 -0.000000 -0.000000 -0.000000 -0.000000 -0.000000 -0.000000 -0.000000 -0.000000 -0.000000 -0.000000 -0.000000 -0.000000 -0.000000 -0.000000 -0.000000 0.000000 -0.000000 -0.000000 -0.000000 -0.000000 0.000000 -0.000000 0.000000 0.000000 -0.000000 -0.000000 0.000000 0.000000 0.000000 -0.000000 -0.000000 0.000000 0.000000 0.000000 -0.000000 -0.000000 0.000000 0.000000 0.000000 0.000000 -0.000000 0.000000 0.000000 -0.000000 -0.000000 -0.000000 0.000000 0.000000 -0.000000 0.000000 0.000000 0.000000 -0.000000 -0.000000 -0.000000 -0.000000 -0.000000 -0.000000 -0.000000 -0.000000 -0.000000 -0.000000 -0.000000 -0.000000 -0.000000 -0.000000 -0.000000 -0.000000 -0.000001 -0.000001 -0.000002 -0.000004 -0.000007 -0.000012 -0.000021 -0.000035 -0.000059 -0.000098 -0.000163 -0.000267 -0.000435 -0.000703 -0.001126 -0.001791 -0.002825 -0.004417 -0.006813 -0.010138 -0.012791 -0.013501 -0.000000 -0.000000 -0.000000 -0.000000 0.000000 0.000000 0.000000 0.000000 0.000000 0.000000 0.000000 0.000000 0.000000 0.000000 0.000000 0.000000 0.000000 0.000000 0.000000 0.000000 0.000000 0.000000 0.000000 0.000000 0.000000 0.000000 0.000000 0.000000 0.000000 0.000000 0.000000 0.000000 0.000000 0.000000 0.000000 0.000000 0.000000 0.000000 0.000000 0.000000 0.000000 0.000000 0.000000 0.000000 0.000000 0.000000 0.000000 0.000000 0.000000 0.000000 0.000000 0.000000 0.000000 0.000000 0.000000 0.000000 0.000000 0.000000 0.000000 0.000000 0.000000 0.000000 0.000000 0.000000 0.000000 0.000000 0.000000 0.000000 0.000000 0.000000 -0.000000 0.000000 0.000000 0.000000 0.000000 0.000000 0.000000 0.000000 0.000000 0.000000 0.000000 -0.000000 0.000000 0.000000 -0.000000 0.000000 0.000000 0.000000 0.000000 0.000000 0.000000 0.000000 0.000000 0.000000 -0.000000 0.000000 0.000000 0.000000 0.000000 -0.000000 -0.000000 0.000000 0.000000 0.000000 0.000000 0.000000 0.000000 0.000000 -0.000000 -0.000000 -0.000000 -0.000000 -0.000000 -0.000000 -0.000000 -0.000000 -0.000000 -0.000000 -0.000000 -0.000000 -0.000000 -0.000000 -0.000000 -0.000000 -0.000000 -0.000000 -0.000000 -0.000000 0.000000 0.000000 0.000000 -0.000000 0.000000 0.000000 0.000000 0.000000 0.000000 0.000000 0.000000 -0.000000 -0.000000 -0.000000 0.000000 0.000000 -0.000000 -0.000000 -0.000000 0.000000 0.000000 -0.000000 0.000000 0.000000 0.000000 0.000000 -0.000000 0.000000 0.000000 0.000000 -0.000000 -0.000000 0.000000 0.000000 0.000000 0.000000 0.000000 0.000000 0.000000 0.000000 0.000000 -0.000000 -0.000000 -0.000000 -0.000000 -0.000000 -0.000000 -0.000000 -0.000000 -0.000000 -0.000000 -0.000000 -0.000000 -0.000000 -0.000001 -0.000001 -0.000002 -0.000004 -0.000007 -0.000012 -0.000021 -0.000035 -0.000059 -0.000099 -0.000164 -0.000270 -0.000439 -0.000708 -0.001132 -0.001792 -0.002796 -0.004272 -0.006293 -0.008656 -0.010737 -0.011565 -0.011580 -0.017260 -0.030338 -0.059230 -0.096183 -0.146270 -0.216388 -0.315112 -0.453761 -0.647344 -0.915678 -1.284702 -1.788053 -2.468903 -3.382066 -4.596372 -6.197247 -8.289452 -10.999852 -14.480074 -18.908856 -24.493833 -31.472487 -40.111946 -50.707315 -63.578242 -79.063458 -97.513119 -119.278821 -144.701257 -174.095482 -207.733681 -245.825182 -288.493126 -335.746776 -387.447974 -443.269791 -502.645263 -564.704625 -628.201093 -691.428936 -752.145159 -807.520530 -854.168988 -888.333623 -906.350232 -905.546206 -885.700437 -850.856062 -811.308593 -785.320358 -787.722143 -942.773244 -1273.636102 -1830.330800 -2276.014818 -2207.952152 -1394.241992 62.078438 744.335334 453.446783 -541.451343 -839.334751 -757.531137 -479.946308 147.152239 152.902215 89.268235 -138.513665 -1070.261296 -2670.552051 -3859.187041 -3159.517682 -1948.656676 -691.178648 805.642032 1999.483629 4180.062325 7819.422960 10654.776482 12577.201150 13114.202358 13098.933492 13632.222032 14931.677810 17150.104510 19975.154712 22529.733431 24378.664469 26640.357754 29178.387753 31609.616984 33194.498496 33882.886164 34258.335875 34747.420091 36048.251155 37584.089636 38222.870952 37390.229538 34883.781741 32673.314545 -0.013501 -0.019331 -0.034356 -0.060302 -0.095933 -0.145472 -0.215137 -0.313335 -0.451303 -0.643994 -0.911159 -1.278666 -1.780068 -2.458440 -3.368487 -4.578921 -6.175042 -8.261483 -10.964983 -14.437062 -18.856371 -24.430496 -31.396924 -40.022854 -50.603541 -63.458876 -78.927935 -97.361322 -119.111190 -144.518901 -173.900284 -207.528430 -245.613720 -288.280547 -335.539694 -387.254887 -443.101542 -502.515597 -564.630760 -628.204147 -691.533911 -752.379830 -807.912206 -854.737863 -889.081196 -907.236477 -906.460302 -886.456068 -851.347856 -811.438529 -783.758425 -779.735993 -831.461121 -1026.272473 -1339.381530 -1432.021981 -1186.853321 -711.566955 -82.369734 172.976571 -118.177622 -558.352323 -911.368032 -659.478993 -65.158174 150.847429 201.543138 -44.509771 -483.491452 -1146.649243 -2298.340119 -3023.104006 -2843.487372 -1778.545914 -584.866346 614.374328 1831.716266 3647.284720 6614.715094 9995.771298 12535.930766 13635.637290 13975.489139 14288.899324 15191.357451 16835.166286 19072.154904 21109.892348 22703.147004 24671.130175 26911.683229 29005.091878 30675.702531 31610.628037 32481.448272 33579.645367 34731.944545 35762.769192 35971.406641 34912.430733 33089.189230 31227.987905 29718.648622 -0.011580 -0.013725 -0.021280 -0.037196 -0.061709 -0.096880 -0.146472 -0.216446 -0.315129 -0.453766 -0.647346 -0.915678 -1.284702 -1.788053 -2.468903 -3.382066 -4.596372 -6.197247 -8.289452 -10.999852 -14.480074 -18.908856 -24.493833 -31.472487 -40.111946 -50.707315 -63.578242 -79.063458 -97.513119 -119.278821 -144.701257 -174.095482 -207.733681 -245.825182 -288.493126 -335.746776 -387.447975 -443.269793 -502.645269 -564.704642 -628.201137 -691.429036 -752.145372 -807.521087 -854.170874 -888.339248 -906.357946 -905.548759 -885.725474 -851.273530 -812.687256 -784.970014 -778.827146 -799.672807 -870.611491 -970.991164 -949.518868 -694.992207 -348.567389 -111.060239 -83.951296 -302.673699 -706.042914 -937.529345 -659.690622 -72.487633 271.205623 132.108516 -216.972733 -529.318379 -1076.922220 -1897.766349 -2369.387798 -2134.316684 -1186.362568 -24.214616 837.492942 1713.591172 3476.540120 6312.322468 9546.781630 12320.708164 13899.941733 14410.564343 14679.155666 15477.335096 16908.792520 18612.989951 20110.059061 21532.121073 23343.317114 25508.372260 27539.115093 29202.628773 30514.192668 31688.526545 32892.845511 34031.101302 34786.895293 34698.675660 33743.111823 32226.526294 30477.066020 29055.027614 28382.476726 -4052.574130 13341.090007 22990.387187 20385.725986 23710.662968 21264.578168 26370.447270 36547.598159 30563.493943 30543.690207 34090.388929 37389.853107 36392.140123 36923.548738 36970.872724 41407.071476 39542.950189 39468.966962 39948.819323 35286.161035 20624.353638 16887.308254 18062.985173 13644.570160 29907.958154 26989.994208 23763.428185 34086.276844 28802.853475 40670.009720 35160.903942 36695.270469 49179.218976 36637.741004 45128.909141 40739.401828 42387.295326 46852.195585 38729.029332 39605.409632 19150.561927 21091.999014 20866.043185 22236.610874 30389.320585 36602.843717 30098.128655 29609.870985 10767.212624 40710.585623 40484.459747 43533.431775 28502.203191 38116.491823 43975.575035 40503.272411 46926.282813 42156.738254 38809.137874 40473.724975 29605.392869 15147.697075 91208.934729 31272.980179 29377.328373 12193.191690 39637.688810 32617.434475 40502.369276 47375.784848 42391.773132 34136.228157 38650.842163 41007.025699 44222.327790 39358.376411 33985.096111 44863.422322 43781.099892 39239.373188 7312.882744 5161.199741 34251.265043 8970.431375 20194.390616 15404.461288 76761.139626 56539.375462 41513.646848 39414.559994 20947.971880 20242.526933 22054.314160 42651.449937 34883.331181 41870.979417 46456.717362 11741.174384 41248.572616 41093.337337 20161.304705 39681.299443 18084.689557 20502.086133 50941.238065 10036.738945 -5122.927070 2935.781216 36074.064044 40110.933413 7089.521211 42931.216076 45477.426276 4053.578561 42928.490441 43687.750740 47183.757216 43116.996631 40971.357917 48595.464168 14525.376017 29715.078343 15359.387153 19241.833573 19134.912488 49986.502102 24543.540565 -4393.986344 21086.314592 2845.667718 9801.055147 18572.188265 20561.725436 37698.417284 10225.068870 -348.511465 41499.800443 43901.146637 41319.451803 41860.687993 48020.738069 19326.687337 15161.569583 -23060.985117 17936.539842 74087.054242 18549.234850 6039.225464 -4675.032191 13650.538724 3885.078661 7664.250419 43381.424209 14542.556908 60340.489570 42849.219270 3640.604567 43841.487089 39501.351825 23527.621499 -15750.362494 7371.846782 17592.991718 27837.827861 99282.898743 9587.232440 16640.340753 6610.540633 43688.584483 15850.013947 18361.258968 21211.471504 28422.198396 700.250612 2935.886639 10397.428502 19234.304244 42488.485166 28083.601001 42734.258072 16338.790566 463.733006 17585.416387 31629.593166 10787.953594 90825.717805 29019.315257 60799.429432 7146.717400 -445.322390 96289.977734 60266.160262 14427.629906 21503.816659 14105.430232 33174.151826 23183.965419 42264.947620 21683.539384 33465.351705 2142.230976 100077.147459 60441.042681 10838.805395 27471.775514 25046.277758 9945.308956 18343.952136 56766.506542 14255.165968 15876.085745 8281.119785 10199.000860 9350.645723 9469.007257 26061.010737 10964.030150 -1240.891188 17571.544877 21093.686003 12056.301835 2354.558717 55522.884853 17010.478870 53698.556080 25389.956286 -21799.488818 21679.545923 29307.569875 15228.802288 8024.634376 1199.177177 20183.237957 11140.699799 16933.206853 30926.152386 32002.446260 11213.195385 31836.505211 26123.207813 97770.121914 17701.584223 -31084.468572 11130.017326 2324.363392 72726.324270 4726.278893 19208.455356 9239.114611 25196.928171 -5986.251168 28901.496376 27336.268109 9826.768705 26143.981080 23110.256375 29490.093333 27480.293191 27082.667639 32745.551312 11928.374413 -1997.380945 18150.868394 19864.531260 42375.885598 21575.700910 -22585.115073 28313.486261 35233.035183 -7320.281807 26450.122009 11531.924048 14102.505469 26053.904939 10342.974171 31064.320283 33217.578818 28691.732605 3320.874396 40814.078352 -13058.168338 16327.150478 13658.594383 26729.720375 10899.514195 21952.935894 25696.429817 13920.654640 11081.148517 27125.165833 31239.399712 24791.321124 29697.503598 24957.697998 25897.231694 31036.727726 23423.523903 29674.613830 23488.330043 25537.104783 25627.625454 21616.678187 -24938.032576 -6112.031271 24070.852759 20480.725340 15947.752293 14700.515313 25786.177121 12400.067348 21492.815796 18372.839486 28321.894918 24005.658484 22118.725215 32353.605896 27659.092164 30131.860590 28262.627711 29224.340599 11446.849718 24159.956664 13478.572590 18520.609851 23434.989607 60530.523158 23225.304404 28071.366446 21154.998722 19374.601721 28164.193075 11660.090227 21009.760547 26959.151844 27812.551226 30103.956532 28559.300488 32756.280283 23720.993175 28489.221960 16596.481004 -8204.065662 11971.506601 13039.000811 14911.415599 22260.016241 13679.199986 12910.479539 25455.613950 16278.641789 18535.480660 23363.886818 27855.213539 28315.649270 27026.957182 26901.962669 27187.548963 25558.125280 28091.291900 29796.082042 12421.162035 15263.505441 15767.869418 11568.699562 14882.306072 16900.274399 18585.403333 19167.144211 18550.259424 16280.692867 22233.880169 23719.949586 18369.522998 22288.470080 18890.999125 31704.723091 24584.167214 32769.780336 29122.411157 32896.254085 13426.986322 15970.605545 14094.885787 11537.331489 15453.456851 18781.532236 14133.277219 19879.480414 15263.134661 20877.777454 24019.061134 24901.717105 23517.851334 35719.806759 25042.417156 21741.096605 20205.799393 32690.493279 32861.608574 33555.749619 14267.849612 18469.346399 16410.592157 12585.416864 19891.850182 15189.659983 17143.415346 19721.548783 19061.039480 20180.111685 21309.194839 22428.598784 23232.048784 27644.338514 25989.250634 30863.861654 28816.422463 25104.404249 23095.582785 32540.584046 15835.284073 17399.761123 14009.029623 14003.080112 18110.009838 17096.091432 19271.134879 16342.985438 19990.247613 18766.574737 21186.870237 16798.262745 21647.722307 24831.858883 24988.166109 27177.779966 25732.370388 22290.761900 29135.470347 30946.298968 9107.633419 13059.514695 13998.220673 16870.731503 15454.637986 15334.377870 16953.517636 17790.294845 15566.861369 19301.569887 22198.062953 22823.345571 20892.296722 23260.268497 21958.762328 26444.192006 24372.776877 27359.430273 29475.785833 36346.491255 8529.479434 13097.990530 17278.776928 8094.498672 8762.172229 14651.001232 13225.282999 16063.406759 17765.885466 20505.230659 16615.666430 19286.617415 25000.490205 18097.481960 21829.310395 24718.209193 31512.963571 24320.844716 33067.016257 28366.338181 9976.498106 7851.242699 10492.107546 7917.441300 10858.377430 13155.656293 14121.520269 15782.386895 19931.382347 14653.526353 19623.008855 22088.562681 20198.365830 27611.082616 22883.464028 30055.997949 26083.294377 26137.045290 30777.474923 37928.560848 8105.257691 14280.259917 13406.933894 10197.631118 11728.290882 15371.147935 12203.357280 17900.163207 11209.759580 18159.179730 17111.720054 18526.587600 22740.392344 21728.269247 27429.922638 24011.308887 22719.895920 26611.294283 28133.706946 30614.982419 10744.136266 9044.072125 7829.624373 7675.301685 8048.071860 10958.117222 10500.450327 12392.561781 16902.490166 16897.807971 18103.737347 19608.602157 20015.625512 19944.645643 25683.003380 28610.663983 23506.800163 30147.302885 31687.399162 30612.741261 9675.943140 9802.565389 8117.102106 7629.625378 10447.992692 11540.242197 10360.758364 14787.275563 11311.233606 21282.009190 20156.261908 18434.911183 14802.998477 16980.491038 19239.739685 29849.346104 27254.948248 24507.789018 38229.769902 26561.805997 8061.564672 11202.082032 3297.002507 7941.632372 8850.652566 9894.856994 12540.466053 11596.105996 12476.949398 16055.238880 10403.100568 13649.839178 24459.899846 21050.448846 21578.327892 26197.380916 24190.145163 23637.466742 22070.130269 27458.489989 329.422191 8279.113845 5136.808592 11754.061058 9186.032781 8410.912873 12698.970719 12694.194932 14594.893699 16271.802358 9010.550755 16455.590945 16279.681949 25770.414641 25421.635581 24132.481852 22123.712774 27027.139838 23126.590978 35108.366624 -175.267644 2361.035053 -126.740301 5785.849580 6627.488615 13086.936094 10217.878699 8660.639596 13378.066675 15037.050252 13544.593710 15319.816243 14423.207488 16495.659266 18829.258062 21754.943226 21815.728525 29149.103989 36762.053799 26494.018071 1351.736325 -2815.592428 357.870811 3147.280795 6907.593929 5926.982831 15835.439241 10537.634933 13726.995544 13395.184912 15947.789058 10505.809213 13154.736355 17938.696360 18093.091365 26187.815428 21077.130575 24677.611433 26238.783137 27631.790543 730.083957 -883.465800 205.680125 2594.106009 3396.924627 11869.705705 8840.216397 11633.589074 15277.356599 16664.848760 14618.068354 16495.720070 19666.093791 17761.171351 19224.716939 24271.144136 20566.687733 23689.429175 34117.312324 22407.051162 -157.481018 2517.917552 571.878534 1524.528612 3684.760378 9449.135687 6796.907590 13415.364303 13149.423461 14443.997613 15195.950395 17792.581704 15967.523677 17292.267752 18730.972448 18496.762530 20524.232196 24251.805051 31551.784092 32198.550829 -3650.349063 306.528792 -217.021706 1746.414222 3390.791729 8152.885215 6320.751349 7160.730380 16239.062049 17340.629558 18747.331057 19778.226327 14351.893825 19591.580635 19864.255477 20658.988316 25291.175298 23170.543165 19140.150394 19880.089280 -4338.566844 -2071.869883 580.681510 2442.130023 3914.826707 6102.384277 6835.221431 8248.159063 9916.380175 15206.791438 16154.927864 16240.034720 19259.825202 18518.982411 17881.077745 20667.626259 22659.193241 21599.025641 22476.801050 2