<VTKFile type="PolyData">
<PolyData>
<Piece NumberOfPoints="6715" NumberOfVerts="6715" NumberOfLines="0" NumberOfStrips="0" NumberOfPolys="0">
<PointData>
<DataArray type="Float64" Name="Pressure" format="ascii">
 13295.821614 12810.491890 12374.545601 12026.864492 11370.568576 10498.901729 9101.343503 7355.205882 5788.340574 4611.625367 4634.751738 6224.322041 6688.735304 4869.845641 6356.573475 18193.639247 28311.267849 17812.947332 5853.453325 -1846.901537 -1599.585769 576.958461 1278.018892 2567.648341 5843.211192 8836.217303 9765.243511 9125.386280 8607.847022 8828.182484 9253.378189 9216.928341 9251.677642 9867.749611 10584.578568 11061.257899 11126.048622 11149.905468 11564.893553 12404.589170 13309.394454 13866.918329 14322.268362 14722.644450 14943.883621 15117.806693 15390.722677 15802.693645 15875.119349 15475.907894 14922.211586 14474.722747 14261.181938 14426.238200 15103.167879 15963.206353 16614.915082 16817.073482 16833.730547 16894.206666 17014.971576 17111.354569 17156.489014 17055.837576 16938.277278 16937.335974 17208.481608 17637.825692 17837.951982 17692.611244 17497.254331 17577.324402 18067.997719 18768.171603 19222.187894 19275.429862 19269.055444 19544.589894 20094.956500 20611.737148 20879.093019 20895.520620 20691.701359 20399.261738 20279.863503 20394.791888 20626.494289 20917.834127 21180.758753 21232.255126 21174.431018 21114.702074 20992.174480 20674.269789 20330.198579 20199.920086 20327.836012 20486.885612 20529.802447 20500.548534 20347.190893 20136.676522 20099.777783 20312.611816 20389.157937 20023.152726 19410.930815 18821.099783 18241.590263 17902.703446 17905.217840 18090.847419 18417.170974 18667.959260 18922.492425 19184.461071 19278.119658 19260.217704 19397.451541 19563.796891 19385.264995 18987.052131 18675.316293 18504.872674 18457.696523 18448.737472 18424.826407 18492.210390 18662.566632 18896.002775 18989.973732 18904.327736 18909.823410 19139.397084 19353.732617 19462.916092 19571.494317 19523.532674 19382.149286 19426.573166 19560.722768 19634.352471 19644.856701 19656.426946 19664.953941 19698.966314 19789.080037 19910.407285 19954.123888 19906.155580 19898.291518 19955.189903 19932.964522 19722.367394 19488.336348 19302.860023 19063.597533 18763.890132 18427.858248 18063.342893 17741.202685 17504.393492 17330.633610 17211.948676 17146.378528 17082.680721 16861.721250 16396.539505 15993.078523 15844.559550 15991.608399 16164.685831 16212.151997 16304.328883 16445.344420 16517.753449 16466.137025 16388.385682 16370.680108 16342.733216 16216.229448 16013.164369 15870.820204 15909.236352 16129.193115 16354.276307 16526.254675 16556.212199 16514.459348 16463.934115 16449.929948 16376.418009 16154.181475 15861.141299 15635.993700 15628.513963 15766.483899 15911.797535 16032.741066 16211.504599 16423.236469 13621.964600 13602.851956 13543.372369 13327.614754 12920.742984 12234.610889 11248.303398 9784.776947 8070.240220 6502.343367 5167.020711 4542.206406 4828.911608 4804.072835 2920.038513 1288.866475 2625.292469 5598.777773 6490.505259 3996.518072 829.052771 687.926819 1754.977598 2580.886598 3983.608360 6110.653448 7924.797480 8595.726703 8415.106038 8343.503107 8744.317936 9292.577362 9673.278603 9984.621686 10440.765961 10948.046054 11318.620327 11483.642786 11667.486762 12087.250402 12715.886362 13382.023079 13926.917435 14399.228448 14747.955215 14896.105158 14925.994937 14968.438621 15038.425694 14965.451098 14677.711291 14301.408004 14015.870698 13923.223899 14218.426497 14933.017453 15776.732915 16398.131196 16680.490345 16764.897578 16861.579634 17009.406600 17120.712153 17149.950009 17084.696642 16982.481339 16994.114696 17218.128658 17538.093702 17705.506426 17649.632519 17545.828670 17670.030127 18154.230115 18822.656649 19270.600200 19346.791331 19334.855454 19507.392881 19855.864064 20214.332026 20464.462031 20532.319384 20398.745055 20212.915127 20137.779560 20210.784615 20399.799298 20625.391394 20798.963807 20821.634394 20783.879864 20764.536901 20683.550554 20437.819923 20147.889378 20012.098429 20069.893663 20187.925725 20219.701641 20156.228742 20067.003500 20006.281080 20036.729126 20122.975309 20043.562463 19659.193832 19079.959041 18426.793982 17815.389668 17501.027949 17583.930192 17917.756716 18267.369947 18507.590856 18706.416224 18890.000107 18964.125137 18970.937647 19076.731294 19212.075439 19154.738252 18941.619172 18726.178902 18570.941493 18468.651868 18373.207342 18297.664787 18356.494576 18544.448180 18795.117423 18982.240925 18843.228328 18622.757978 18605.540632 18712.454906 18895.994409 19132.093566 19254.744215 19275.244173 19365.318571 19501.059347 19585.895542 19632.845468 19670.263073 19695.337207 19709.828894 19751.626578 19830.156589 19873.119637 19856.754162 19849.629818 19853.611636 19795.463489 19631.146185 19426.029276 19221.226281 18979.836107 18676.710303 18325.675032 17964.054693 17654.098198 17431.735937 17284.803399 17189.796276 17126.364970 17044.745765 16829.769174 16448.884400 16107.548720 15986.155008 16074.922753 16196.474158 16266.091935 16365.331672 16496.165250 16579.720970 16548.219084 16463.302472 16399.640717 16324.188199 16193.854178 16035.315215 15949.760372 16016.983420 16230.888250 16481.304747 16672.997022 16770.012781 16781.857598 16748.880241 16708.860098 16603.621389 16379.007126 16114.212237 15944.317517 15962.172709 16106.009233 16272.130803 16413.531974 16551.913068 16701.534948 16845.435795 13584.598682 13619.455577 13690.271169 13737.660711 13601.603147 13184.400324 12466.524849 11394.571197 9912.576503 8272.236178 6795.437025 5477.184153 4483.557029 4163.432436 4071.151550 2756.892972 154.149457 -1351.154380 -617.466323 1400.619215 2650.583598 2560.042046 2322.234553 2594.407745 3330.901657 4516.250035 6012.499608 7279.237003 7906.668211 8105.506437 8369.910821 8860.316538 9426.985873 9895.777448 10253.325322 10614.224268 11000.308887 11323.153879 11567.008984 11848.261705 12248.887630 12750.222104 13293.233001 13837.616990 14329.611695 14667.303327 14789.155237 14749.703681 14678.691707 14610.194953 14474.432311 14239.662059 13968.678193 13776.989594 13783.502690 14121.080184 14783.660758 15565.889098 16191.239436 16531.727695 16666.530449 16770.147434 16921.825881 17066.895896 17116.721603 17075.004295 17025.603639 17082.962167 17284.040121 17533.542559 17674.675118 17666.307156 17637.866517 17786.403436 18214.154410 18789.542504 19213.284106 19351.373441 19377.738502 19506.282761 19757.642530 20025.412835 20223.748886 20293.684726 20212.586124 20084.315321 20041.199450 20104.079912 20234.015977 20388.437309 20498.447256 20519.934997 20500.277408 20482.599694 20415.721180 20237.643280 20020.533221 19905.265284 19934.471996 20022.859429 20064.742915 20041.633449 20000.643845 19976.131447 19984.815972 19974.421384 19814.082760 19436.178419 18897.636533 18290.582459 17735.330150 17429.445641 17503.134498 17834.637982 18153.362997 18360.463250 18527.848903 18676.243906 18753.215006 18785.914197 18870.071749 18976.837469 18975.256912 18844.627558 18682.432223 18548.457257 18422.132563 18305.980117 18242.934172 18285.538981 18456.497670 18693.177944 18880.094257 18813.000481 18583.905591 18440.315906 18477.722757 18678.486850 18940.208944 19128.251410 19235.476459 19358.976538 19498.843796 19586.058216 19629.777510 19667.915784 19691.283076 19690.762320 19708.636301 19759.449398 19798.382135 19802.442543 19795.151352 19776.892682 19702.426084 19548.962048 19353.402108 19140.459821 18897.395267 18605.945538 18267.372468 17924.984453 17636.246094 17425.271103 17281.710005 17185.005079 17114.797582 17019.740340 16822.937344 16519.924643 16244.256147 16141.672354 16197.071414 16279.482649 16331.073505 16406.776487 16517.258841 16590.658049 16572.071798 16497.391045 16417.991727 16327.292674 16205.171258 16082.749330 16033.472313 16111.989475 16311.308647 16555.757296 16752.216270 16858.274032 16888.802067 16876.204970 16822.494526 16698.469070 16493.007882 16270.235586 16135.581904 16151.456762 16279.840876 16439.296119 16580.794622 16707.937127 16839.477312 16956.286114 17014.674435 16423.236469 15963.033850 15445.667038 15077.400792 14700.126307 14275.751672 13779.057111 13252.303201 12723.304693 12168.685503 11528.823216 10723.683673 9904.674559 9149.255654 8484.853107 7851.567836 7334.362941 6865.887769 6818.152884 6852.283843 6750.496951 6434.255389 6016.905266 5544.218104 5054.791538 4593.053807 4178.843862 3815.845914 3496.413834 3213.961678 2963.218670 2739.692539 2539.614803 2359.810068 2197.561609 2050.503906 1916.559477 1793.907783 1680.969406 1576.393672 1479.043956 1387.979080 1302.431563 1221.784261 1145.546967 1073.334129 1004.844472 939.842904 878.144875 819.603166 764.097005 711.523314 661.789886 614.810243 570.499937 528.774056 489.545699 452.725221 418.220060 385.934978 355.772582 327.634023 301.419774 277.030420 254.367421 233.333804 213.834769 195.778199 179.075066 163.639742 149.390220 136.248251 124.139417 112.993135 102.742623 93.324825 84.680301 76.753102 69.490636 62.843509 56.765381 51.212809 46.145091 41.524124 37.314256 33.482147 29.996639 26.828626 23.950932 21.338197 18.966764 16.814570 14.861032 13.086929 11.474211 10.005620 8.663609 7.427068 6.255924 5.110764 4.507481 16845.435795 16590.335829 16180.682815 15721.925496 15320.252500 14920.012985 14464.952722 13953.280046 13422.444031 12875.586398 12274.326249 11589.708990 10833.569513 10076.720091 9351.519032 8695.553543 8100.741223 7605.268652 7220.239427 7030.375110 6907.730083 6713.881705 6395.971296 5983.620925 5518.495453 5038.998577 4583.432289 4174.412810 3813.386232 3494.632703 3212.529506 2962.013917 2738.660995 2538.723272 2359.036931 2196.891688 2049.925080 1916.060833 1793.478904 1680.600270 1576.074816 1478.766696 1387.735679 1302.215316 1221.589509 1145.369044 1073.169285 1004.689767 939.696101 878.004329 819.467724 763.965904 711.396100 661.666333 614.690291 570.383638 528.661525 489.437084 452.620677 418.119728 385.838970 355.680981 327.546872 301.337079 276.952151 254.293515 233.264169 213.769289 195.716740 179.017477 163.585863 149.339882 136.201285 124.095649 112.952395 102.704745 93.289644 84.647660 76.722850 69.462628 62.817607 56.741455 51.190733 46.124748 41.505404 37.297052 33.466362 29.982179 26.815403 23.938864 21.327208 18.956783 16.805536 14.852907 13.079735 11.468162 10.001547 8.664422 7.442709 6.327174 5.330835 4.669868 4.395722 17014.674435 16919.978000 16667.706955 16281.724641 15867.930527 15462.217012 15044.549809 14579.631111 14064.628673 13519.225206 12944.033084 12315.827940 11623.062233 10891.195260 10161.258457 9460.642874 8811.850744 8234.498140 7748.607542 7374.747499 7119.201017 6916.545268 6676.110393 6352.224580 5948.442416 5493.037938 5024.355566 4578.444398 4174.263733 3814.589408 3496.039137 3213.848746 2963.181509 2739.680350 2539.610991 2359.808938 2197.561282 2050.503812 1916.559449 1793.907775 1680.969403 1576.393672 1479.043956 1387.979080 1302.431563 1221.784261 1145.546967 1073.334129 1004.844472 939.842904 878.144875 819.603166 764.097005 711.523314 661.789886 614.810243 570.499937 528.774056 489.545699 452.725221 418.220060 385.934978 355.772582 327.634023 301.419774 277.030420 254.367421 233.333804 213.834769 195.778199 179.075066 163.639742 149.390220 136.248251 124.139417 112.993135 102.742623 93.324825 84.680301 76.753102 69.490636 62.843509 56.765381 51.212809 46.145091 41.524124 37.314256 33.482147 29.996639 26.828626 23.950933 21.338200 18.966774 16.814601 14.861135 13.087267 11.475318 10.009241 8.675464 7.465735 6.385350 5.471678 4.788231 4.436905 4.334556 4.507481 4.134861 3.546483 3.080263 2.690697 2.352604 2.055995 1.795022 1.565374 1.363454 1.186117 1.030564 0.894295 0.775077 0.670912 0.580020 0.500813 0.431880 0.371967 0.319963 0.274884 0.235857 0.202117 0.172984 0.147863 0.126230 0.107626 0.091647 0.077942 0.066201 0.056158 0.047578 0.040257 0.034019 0.028711 0.024200 0.020372 0.017127 0.014380 0.012059 0.010099 0.008447 0.007056 0.005886 0.004904 0.004080 0.003391 0.002814 0.002332 0.001931 0.001596 0.001317 0.001086 0.000894 0.000735 0.000604 0.000495 0.000406 0.000332 0.000271 0.000221 0.000180 0.000146 0.000119 0.000097 0.000078 0.000063 0.000051 0.000041 0.000033 0.000027 0.000021 0.000017 0.000014 0.000011 0.000008 0.000007 0.000005 0.000004 0.000003 0.000002 0.000001 -0.000000 -0.000001 -0.000002 -0.000003 -0.000004 -0.000005 -0.000006 -0.000008 -0.000010 -0.000013 -0.000016 -0.000020 -0.000025 -0.000031 -0.000038 -0.000047 -0.000058 -0.000071 -0.000087 -0.000106 -0.000130 -0.000159 -0.000194 -0.000236 -0.000287 -0.000348 -0.000422 -0.000511 -0.000619 -0.000747 -0.000901 -0.001086 -0.001306 -0.001569 -0.001882 -0.002255 -0.002698 -0.003224 -0.003847 -0.004584 -0.005455 -0.006483 -0.007694 -0.009119 -0.010792 -0.012756 -0.015057 -0.017748 -0.020892 -0.024559 -0.028831 -0.033800 -0.039572 -0.046267 -0.054021 -0.062988 -0.073345 -0.085289 -0.099043 -0.114858 -0.133019 -0.153842 -0.177683 -0.204940 -0.236057 -0.271530 -0.311910 -0.357808 -0.409903 -0.468945 -0.535763 -0.611271 -0.696474 -0.792476 -0.900486 -1.021828 -1.157948 -1.310418 -1.480952 -1.671406 -1.883792 -2.120284 -2.383226 -2.675140 -2.998732 -3.356905 -3.752757 -4.189594 -4.670932 -5.200502 -5.782254 -6.420358 -7.119205 -7.883407 -8.717795 -9.627412 -10.617513 -11.693549 -12.861162 -14.126171 -15.494557 -16.972440 -18.566068 -20.281784 -22.126003 -24.105184 -26.225797 -28.494288 -30.917044 -33.500370 -36.250491 -39.173659 -42.276614 -45.568191 -49.064794 -52.808313 -56.945419 -61.720147 -64.563425 4.395722 4.272708 3.941262 3.485769 3.061963 2.683905 2.349373 2.053964 1.793472 1.564074 1.362324 1.185122 1.029685 0.893519 0.774392 0.670309 0.579488 0.500346 0.431470 0.371608 0.319649 0.274608 0.235617 0.201907 0.172802 0.147705 0.126093 0.107507 0.091544 0.077852 0.066124 0.056092 0.047520 0.040208 0.033977 0.028675 0.024169 0.020345 0.017104 0.014361 0.012042 0.010085 0.008435 0.007046 0.005878 0.004897 0.004074 0.003386 0.002810 0.002329 0.001927 0.001593 0.001315 0.001084 0.000893 0.000734 0.000603 0.000494 0.000405 0.000331 0.000271 0.000221 0.000180 0.000146 0.000119 0.000096 0.000078 0.000063 0.000051 0.000041 0.000033 0.000027 0.000021 0.000017 0.000014 0.000011 0.000008 0.000007 0.000005 0.000004 0.000003 0.000002 0.000001 -0.000000 -0.000001 -0.000002 -0.000003 -0.000004 -0.000005 -0.000006 -0.000008 -0.000010 -0.000013 -0.000016 -0.000020 -0.000025 -0.000031 -0.000038 -0.000047 -0.000058 -0.000071 -0.000087 -0.000106 -0.000130 -0.000158 -0.000193 -0.000235 -0.000286 -0.000348 -0.000422 -0.000511 -0.000618 -0.000746 -0.000900 -0.001084 -0.001304 -0.001567 -0.001880 -0.002252 -0.002695 -0.003220 -0.003842 -0.004578 -0.005448 -0.006475 -0.007684 -0.009107 -0.010779 -0.012741 -0.015039 -0.017727 -0.020868 -0.024532 -0.028799 -0.033764 -0.039530 -0.046219 -0.053966 -0.062925 -0.073273 -0.085206 -0.098949 -0.114752 -0.132898 -0.153705 -0.177527 -0.204764 -0.235859 -0.271307 -0.311659 -0.357526 -0.409587 -0.468591 -0.535368 -0.610830 -0.695982 -0.791929 -0.899879 -1.021155 -1.157203 -1.309595 -1.480044 -1.670407 -1.882694 -2.119079 -2.381906 -2.673696 -2.997156 -3.355187 -3.750888 -4.187565 -4.668733 -5.198123 -5.779685 -6.417588 -7.116224 -7.880206 -8.714363 -9.623741 -10.613592 -11.689370 -12.856718 -14.121454 -15.489559 -16.967157 -18.560495 -20.275917 -22.119840 -24.098725 -26.219041 -28.487233 -30.909683 -33.492665 -36.242307 -39.164541 -42.265048 -45.549192 -49.021744 -52.685221 -56.522127 -60.396893 -63.139146 -64.213486 4.334556 4.299385 4.145068 3.830683 3.444443 3.049509 2.681283 2.349729 2.055116 1.794754 1.565292 1.363429 1.186109 1.030561 0.894295 0.775077 0.670912 0.580020 0.500813 0.431880 0.371967 0.319963 0.274884 0.235857 0.202117 0.172984 0.147863 0.126230 0.107626 0.091647 0.077942 0.066201 0.056158 0.047578 0.040257 0.034019 0.028711 0.024200 0.020372 0.017127 0.014380 0.012059 0.010099 0.008447 0.007056 0.005886 0.004904 0.004080 0.003391 0.002814 0.002332 0.001931 0.001596 0.001317 0.001086 0.000894 0.000735 0.000604 0.000495 0.000406 0.000332 0.000271 0.000221 0.000180 0.000146 0.000119 0.000097 0.000078 0.000063 0.000051 0.000041 0.000033 0.000027 0.000021 0.000017 0.000014 0.000011 0.000008 0.000007 0.000005 0.000004 0.000003 0.000002 0.000001 -0.000000 -0.000001 -0.000002 -0.000003 -0.000004 -0.000005 -0.000006 -0.000008 -0.000010 -0.000013 -0.000016 -0.000020 -0.000025 -0.000031 -0.000038 -0.000047 -0.000058 -0.000071 -0.000087 -0.000106 -0.000130 -0.000159 -0.000194 -0.000236 -0.000287 -0.000348 -0.000422 -0.000511 -0.000619 -0.000747 -0.000901 -0.001086 -0.001306 -0.001569 -0.001882 -0.002255 -0.002698 -0.003224 -0.003847 -0.004584 -0.005455 -0.006483 -0.007694 -0.009119 -0.010792 -0.012756 -0.015057 -0.017748 -0.020892 -0.024559 -0.028831 -0.033800 -0.039572 -0.046267 -0.054021 -0.062988 -0.073345 -0.085289 -0.099043 -0.114858 -0.133019 -0.153842 -0.177683 -0.204940 -0.236057 -0.271530 -0.311910 -0.357808 -0.409903 -0.468945 -0.535763 -0.611271 -0.696474 -0.792476 -0.900486 -1.021828 -1.157948 -1.310418 -1.480952 -1.671406 -1.883792 -2.120284 -2.383226 -2.675140 -2.998732 -3.356905 -3.752757 -4.189594 -4.670932 -5.200502 -5.782254 -6.420358 -7.119205 -7.883407 -8.717795 -9.627412 -10.617513 -11.693549 -12.861162 -14.126171 -15.494557 -16.972440 -18.566068 -20.281784 -22.126002 -24.105183 -26.225792 -28.494270 -30.916988 -33.500187 -36.249895 -39.171717 -42.270288 -45.547585 -48.997643 -52.590088 -56.223108 -59.615850 -62.310820 -63.670671 -64.020619 -64.563425 -68.118464 -74.592020 -80.845504 -87.076231 -93.442597 -99.981074 -106.698573 -113.592285 -120.655810 -127.880990 -135.258468 -142.777869 -150.427864 -158.196216 -166.069825 -174.034779 -182.076416 -190.179405 -198.327829 -206.505289 -214.695007 -222.879947 -231.042925 -239.166727 -247.234215 -255.228425 -263.132664 -270.930616 -278.606505 -286.145370 -293.533531 -300.759352 -307.814354 -314.694656 -321.402494 -327.947258 -334.345036 -340.615339 -346.773757 -352.820547 -358.728194 -364.436458 -369.872340 -375.021789 -380.068104 -385.528514 -392.262950 -400.458485 -409.670363 -422.564381 -442.547248 -474.609893 -500.347941 -511.857552 -512.064194 -487.987911 -456.600838 -460.752546 -469.719854 -520.480090 -648.220353 -757.117347 -838.697633 -917.160171 -1080.177123 -1109.391679 -782.955427 -342.413132 -117.840863 -419.363556 -829.387408 -905.926380 -839.904024 -754.702837 -727.314669 -744.401962 -781.935978 -878.328329 -1082.959070 -1255.370822 -1309.021186 -1196.037601 -994.592354 -736.666451 -473.730678 -124.859743 832.071305 1828.860873 2774.714727 4019.525800 4791.277852 5745.895989 7278.599967 8696.064684 9986.925990 10728.154992 11257.972360 11720.039755 12494.808957 13295.821614 -64.213486 -65.760637 -69.522082 -75.048783 -80.963240 -87.105339 -93.445397 -99.976127 -106.691482 -113.584789 -120.648471 -127.874010 -135.251940 -142.771850 -150.422400 -158.191348 -166.065592 -174.031214 -182.073550 -190.177266 -198.326439 -206.504665 -214.695162 -222.880888 -231.044652 -239.169238 -247.237502 -255.232477 -263.137463 -270.936139 -278.612718 -286.152216 -293.540921 -300.767146 -307.822344 -314.702559 -321.409970 -327.953972 -334.350790 -340.620264 -346.778532 -352.826502 -358.737063 -364.449369 -369.887293 -375.030118 -380.056785 -385.504850 -392.298075 -401.121254 -411.464884 -424.040020 -441.414170 -463.850385 -482.146932 -476.496810 -446.429239 -401.652093 -367.051026 -372.173014 -404.534405 -481.439226 -608.044247 -740.463417 -852.501575 -959.631614 -1088.580052 -1174.451926 -1074.571361 -830.766471 -671.197092 -765.598495 -895.224810 -885.765366 -798.764756 -725.580604 -713.801069 -741.805681 -798.470240 -914.747661 -1103.354121 -1284.940139 -1365.437807 -1324.133107 -1153.374034 -906.533596 -579.544650 -134.667266 753.033227 1871.349602 3091.312975 4367.606236 5261.019335 6441.859629 7999.634961 9532.121001 10865.336926 11813.825275 12360.962245 12675.427673 13137.204507 13520.853152 13621.964600 -64.020619 -64.582178 -66.557817 -70.394486 -75.397618 -81.087877 -87.150855 -93.465493 -99.988103 -106.700730 -113.592947 -120.656013 -127.881052 -135.258488 -142.777875 -150.427865 -158.196216 -166.069825 -174.034779 -182.076416 -190.179405 -198.327829 -206.505289 -214.695007 -222.879947 -231.042925 -239.166727 -247.234215 -255.228425 -263.132664 -270.930616 -278.606505 -286.145370 -293.533531 -300.759352 -307.814354 -314.694656 -321.402494 -327.947258 -334.345037 -340.615343 -346.773767 -352.820580 -358.728301 -364.436688 -369.872386 -375.021634 -380.077339 -385.599616 -392.547765 -401.876820 -413.431736 -426.694052 -442.598948 -459.500895 -467.885478 -450.006689 -403.305034 -348.839342 -314.124951 -319.063982 -370.536403 -465.389360 -592.577013 -730.991768 -857.901596 -971.009004 -1075.666918 -1145.967132 -1118.001995 -994.115378 -895.330287 -900.508625 -920.423758 -867.731250 -774.970585 -709.549721 -704.167628 -741.652754 -811.635906 -932.096759 -1108.433487 -1285.778057 -1384.092538 -1372.975205 -1243.115535 -1002.546992 -640.437604 -92.080518 796.906482 1942.504511 3203.234740 4453.683562 5543.057106 6851.371323 8388.914257 9931.683389 11304.207934 12352.260328 12998.183810 13324.385761 13540.613428 13643.188522 13622.190502 13584.598682 7161.686549 4952.592058 3407.991766 8764.957337 4972.484172 -357.827848 9275.210602 7427.488633 9205.016786 1908.517352 4868.665369 9690.648119 5097.848671 7061.778218 9569.951610 6093.562840 9066.895902 11803.394162 10531.681780 11489.550640 6141.568281 -860.120922 7987.258622 3943.872459 8104.772562 5235.021038 9118.455849 12686.800849 7550.309156 9152.728032 7462.047999 8055.582959 9001.041523 8661.264580 7794.530974 10331.434728 6865.978566 9634.619256 10412.777765 10290.755928 3314.620944 2628.827690 8212.886947 8858.502076 5662.329916 8214.009400 1683.596047 3283.436463 8939.254122 3684.235455 8618.967833 4679.803163 -550.097464 9119.233846 5815.909144 11278.884636 8792.492577 9586.281431 11359.579540 9847.778550 2556.666563 4690.280777 1516.397423 1872.071028 9693.966135 4873.633045 3470.452721 8504.241219 9417.440316 8099.268135 10804.578919 441.546944 3126.746650 8995.873704 8454.592808 9511.216472 9349.540792 11314.104051 10007.938914 10814.714099 543.188816 1572.235084 770.723972 4969.636100 3747.600043 7903.788642 19121.202003 -2774.617181 4722.428353 3537.816803 9265.501585 5231.664438 7102.912959 4502.669904 4928.880411 10165.519261 9763.358707 1264.766181 9771.867560 8851.463703 6457.779908 9422.990859 -548.609054 2916.288234 5527.793716 1179.728627 8944.209542 18053.850181 7427.442368 4566.126378 5612.296792 5549.197466 9669.425616 4374.518787 1265.575088 9577.882536 8554.723684 8873.274188 6169.458936 7710.206248 3316.478850 9692.532501 7762.456776 6802.412373 7966.657557 2165.375811 10020.598053 4035.815787 10522.145713 36603.603098 2763.892193 6359.786990 6195.249290 6198.414669 17323.841318 32403.286656 4503.065501 8771.191156 9437.024369 7322.873288 592.216680 3384.341421 48612.915825 9469.693303 8663.506723 722.738329 7705.175680 9364.277416 9091.029872 16180.386060 4233.840235 4847.904872 6867.434421 50697.714588 4997.865320 8282.452464 33024.131618 3289.229044 6254.841708 8540.251899 8870.127865 7090.088508 7356.563560 49808.007539 22344.052962 6661.140627 9871.299131 34397.573117 4214.046875 3435.823045 12365.382781 4291.034454 6023.531835 7189.704253 7869.222017 8233.865340 3578.030392 5613.958859 9220.524494 8654.128946 -2868.818023 10584.941058 6941.535159 10557.871191 5283.672009 16932.422154 40885.469710 6882.901107 7437.542348 10072.477679 -1593.404996 279.040444 8289.577842 18136.386405 7533.675576 11660.897696 -1750.466966 1464.193528 10617.797477 4630.438027 816.609166 6607.619402 9750.204971 8776.342462 7192.730312 8162.178640 1901.220842 8665.033682 1800.223806 20418.183693 9731.235800 9504.889519 8438.073186 12756.547733 10454.207546 46187.558412 9284.955237 9154.521377 5521.259342 8606.357784 9276.719963 27920.965296 49113.775232 11573.778766 6396.035495 6838.387546 9765.765724 6749.248039 10240.584508 11571.413073 10161.748919 365.963373 7965.062896 7562.306157 10073.294666 9937.350222 9837.719582 2623.713002 9557.191315 -2922.401628 52177.772724 13053.990122 7355.889610 4232.918430 9577.258834 -2422.115994 10512.843621 10941.202189 7816.843336 9082.235210 7881.770215 9578.775124 8487.049625 9127.449843 10596.001165 8508.591339 -2965.877890 14086.513974 14073.469536 9921.946532 6781.821691 7648.943798 9111.261936 7914.897941 6084.679875 9245.425026 10699.612917 8337.067373 8225.745566 9764.877825 6695.976713 9371.691114 9822.258368 11700.517007 6750.956369 8373.275049 11420.128208 12291.853970 -1486.928323 7564.430718 8131.296733 11858.833276 8644.250333 10234.967157 12154.441946 6866.059894 13105.004961 7925.959727 9833.147862 7364.286609 9327.699157 8834.829346 8536.372797 11153.126908 7498.789671 11120.635350 13759.792518 10318.279815 12780.739185 13038.503992 8209.614221 9896.750369 7972.556708 9648.607283 9075.716940 8639.024569 11163.315284 8929.107146 9585.929880 10232.338016 12173.185053 13288.058486 1341.252906 8121.924368 8219.603505 8599.878171 11346.360621 7105.087010 8593.911773 13460.842358 7708.558932 11351.643526 15983.389456 9625.530109 9536.204215 579.035800 8747.146845 8619.363797 12102.472920 10111.897631 14790.140623 13411.582288 14219.021824 11476.259754 10441.263886 13812.913660 9927.066956 -1388.094204 21697.247270 6979.528170 10750.673277 9736.549721 6650.414059 7585.938197 7211.782189 8415.357610 15035.172954 14482.110484 14041.876189 11959.397131 9207.534538 13250.787597 9216.002788 15582.342577 12158.287891 13787.705861 9860.554266 16364.453004 12946.824845 11320.470212 12828.669432 14497.150079 8017.165009 13239.815975 13599.611411 14459.982042 14357.083746 15874.052522 12811.078231 9635.117445 9880.910220 15936.618683 11845.396171 14596.948793 11983.776376 8524.299190 15167.877165 10459.642397 12741.168135 9608.777536 12486.082074 9495.670668 13198.466941 13702.335297 12730.828866 10820.094125 12450.922683 9677.914485 8022.516092 13998.124247 16642.671982 14674.208850 14248.112435 13999.145435 13879.682136 13411.166804 12235.113573 9716.268656 24551.894854 755.202024 11398.279446 9111.401362 14304.814189 11629.312609 9129.040330 14019.983468 14948.236650 10279.413926 10410.074752 12162.270609 13744.396224 10144.773461 15186.509083 11056.516532 15446.003625 13420.992318 14855.229370 15072.718669 12633.457195 8789.687497 15109.206857 10716.581662 12547.073330 8298.447224 7920.225034 11136.878632 13012.948945 11588.854970 13110.525810 10736.483058 12474.580387 13923.964072 10947.102934 16041.772083 14378.836824 15132.551128 13811.908132 11924.078102 11118.064554 882.420586 13967.875333 8796.722229 9371.888256 8653.535119 9854.023940 9420.459725 8804.424681 14603.816659 7143.146316 9466.063382 15721.749857 10436.684906 14396.064296 16402.717960 13729.128690 14403.139518 16437.199254 13069.624732 6733.088006 15233.428001 15024.291038 11256.893079 10800.105394 8719.272090 12160.140407 7620.752373 11599.958431 14497.371158 16190.030250 9831.023697 11908.486269 11534.372531 14916.882105 14701.439493 15401.263404 15114.096360 9104.847732 16277.646119 12128.409361 10034.487826 11552.221208 17706.137995 12017.982555 11341.660098 16257.310043 9680.128027 16604.626292 12226.142886 13554.657473 16078.980608 14943.121940 13493.542525 15847.530917 16296.473819 16220.400762 13938.195966 14024.447703 15633.026596 9275.174403 13578.797630 10559.091902 15960.826353 15819.345583 15292.526596 14475.426763 15789.074409 13549.658561 17302.775438 12469.147237 17404.901166 16858.937236 16278.509092 15933.739322 16649.859989 14730.620968 12280.764127 17315.043716 11475.955665 12347.560890 12950.621028 17660.953563 17752.040456 10644.899375 16047.298657 9505.888853 15116.427989 14889.636929 11016.331370 16949.105603 16328.215754 17689.063920 15019.258859 15583.607937 17241.684955 12242.521862 14358.230708 16932.501362 12807.374766 9547.866004 9328.618830 12093.618521 10309.616213 12790.706977 12271.598649 10267.237798 10905.767245 14728.288243 15433.145608 18196.687410 17225.276712 16280.045857 14645.088419 13792.957604 18201.012068 17216.553246 15089.303033 15889.404562 16615.241191 9843.369960 13367.407281 9394.308639 9240.192043 7194.328809 14208.823886 15348.931238 14151.476593 13841.240224 13862.883065 9545.235361 18584.117408 12791.682156 17543.204576 17637.288896 16216.713347 17066.080647 17628.678529 17762.448585 15863.947617 17040.674499 15373.930247 1994.300447 9127.527506 4411.227671 10011.997534 13673.437093 14936.452318 11238.738712 13756.706090 11525.755342 12928.581540 14914.846994 17187.969469 12094.299061 14800.089196 14014.385818 16845.014526 16654.156959 13388.448267 14727.591942 8134.791192 1652.650288 3197.724636 2453.280201 7622.198747 4393.554553 10387.047534 12821.671329 16156.903065 9492.605037 12907.965110 11611.492729 11545.045034 15639.907201 14668.543351 18218.244284 17799.750714 15538.851433 16714.350292 8691.983852 14817.683976 2042.223294 3194.224474 2853.976472 1783.476741 12979.035997 6972.038565 11158.665650 10222.072751 9964.289874 12346.927875 8518.536686 12497.778130 12000.782572 18962.128047 14816.549608 16387.428213 15956.419972 14856.290524 12175.052908 15832.510135 1906.541484 1464.898330 2757.294784 3100.153163 4032.749374 7467.244697 8754.016564 10023.613806 10340.661332 11354.370801 8467.376261 13136.556910 18092.361462 12667.103213 15167.398530 17829.741688 16520.703496 13334.727526 13377.549969 12664.489427 2531.101216 2989.910048 5991.033141 1963.177658 4575.371365 9124.359427 6748.757916 7635.700315 10462.162627 7923.485230 12427.042721 12913.033337 11071.297329 11722.827339 15993.119026 15611.525013 15257.612149 15909.130213 10713.242242 10637.240560 1473.056967 2035.157199 2192.036335 3093.854603 6752.358483 5774.408651 8532.072299 11157.275524 10397.148960 11498.056628 13192.671784 15194.306390 13095.685047 17661.750474 17556.122670 16989.832202 14379.083718 16756.318248 16511.263868 16624.587569 7657.867723 2228.727256 4599.860266 4028.145441 3491.572176 2704.948779 