<VTKFile type="PolyData">
<PolyData>
<Piece NumberOfPoints="6715" NumberOfVerts="6715" NumberOfLines="0" NumberOfStrips="0" NumberOfPolys="0">
<PointData>
<DataArray type="Float64" Name="Pressure" format="ascii">
 9634.768367 9739.330396 9781.921036 9687.420155 9515.977900 9290.483308 8926.536176 8322.757784 7232.821168 4781.277008 -1716.932816 -18617.395326 -36393.738554 -50100.773390 -55315.208892 -56262.276896 -56321.664507 -55522.583196 -52149.191996 -40584.799594 -24097.013339 -8908.343113 -617.890138 2502.973807 4781.483721 6183.389997 7109.356320 7537.567426 7798.805872 8015.248335 8220.396355 8383.582573 8515.876886 8705.359016 8991.656575 9368.574801 9924.131336 10437.039846 11008.620198 11501.765435 11989.908312 12351.469614 12630.887492 12885.251927 13109.198346 13327.897684 13484.490286 13582.879903 13703.762511 13809.406010 13880.076973 13903.522225 13872.236093 13837.602959 13845.430620 13916.025255 14065.940327 14268.978177 14475.269745 14585.984799 14598.119134 14529.188678 14382.050286 14211.258093 14032.872439 13806.853792 13590.093031 13381.739128 13149.934185 12956.460018 12801.704464 12681.622328 12587.301342 12538.885771 12560.633010 12646.042189 12763.544193 12876.457192 12951.563907 13001.889040 13044.551968 13120.805942 13249.042550 13418.504811 13576.039520 13740.047159 13888.926221 14020.127822 14118.056501 14170.204599 14255.752973 14417.531178 14619.113359 14840.629980 15070.669799 15278.013351 15474.906195 15671.195609 15816.135557 15933.562736 16082.819589 16341.584522 16636.382213 16913.578915 17215.960553 17563.393869 17876.910431 18077.199745 18201.993370 18263.934862 18264.898159 18237.785661 18240.066521 18320.658337 18463.399842 18658.574657 18838.710542 18992.438938 19101.595268 19187.522983 19271.949809 19366.396686 19479.372548 19628.390899 19800.663514 19956.001428 20056.859861 20093.852005 20058.850123 20087.010652 20179.766025 20255.927223 20266.979874 20175.667123 20095.686313 20059.211935 20028.776501 19965.398429 19855.604516 19740.472548 19620.074541 19489.709857 19379.150334 19272.535934 19176.614403 19086.995943 18982.268240 18854.633068 18691.841303 18504.017229 18302.424056 18087.139342 17882.402222 17729.186031 17617.253571 17548.015405 17508.849024 17470.226952 17414.491503 17321.679083 17208.751727 17088.725076 16960.486711 16821.829968 16679.020404 16512.567967 16335.577948 16131.568877 15970.091754 15885.520589 15902.927946 15993.169891 16114.686626 16196.020850 16218.531956 16183.594258 16116.838348 16023.962718 15913.968513 15817.153418 15743.507403 15690.887040 15651.871985 15600.876972 15527.220621 15427.243284 15319.922420 15218.973863 15116.747150 15010.559608 14903.954222 14810.694400 14742.185556 14690.871737 14626.784954 14523.353479 14336.853619 14062.516048 13711.726728 13309.994673 12980.614203 9520.817236 9621.977979 9718.659484 9734.037552 9641.142831 9476.216614 9246.405424 8890.004942 8305.119873 7309.210509 5319.310628 203.970347 -12681.802797 -30832.519512 -46151.394128 -53309.937903 -55083.714325 -55175.661164 -53855.897432 -49749.122308 -37864.480721 -21401.715704 -7866.657188 -130.213964 3210.000515 5184.553416 6528.470379 7338.284255 7752.927112 7982.351274 8166.145220 8339.010780 8488.603656 8627.498293 8821.536580 9098.718230 9476.567714 9953.426507 10466.273124 11018.198603 11539.094670 12009.620564 12397.989577 12718.727779 12993.553426 13235.868233 13445.311244 13601.660112 13740.420140 13869.908548 13971.957745 14032.345718 14041.969877 14018.708753 14000.374410 14021.693283 14097.719569 14250.876558 14450.383176 14630.882193 14740.622249 14761.078517 14691.074444 14552.391313 14375.231522 14176.486391 13961.370360 13737.721988 13514.946126 13293.251243 13093.841538 12932.524829 12803.471555 12708.054575 12669.340228 12704.003469 12802.671505 12933.344541 13054.300799 13142.918330 13204.329090 13261.318797 13339.118078 13451.542490 13592.268612 13744.993651 13905.918135 14049.386382 14174.082880 14268.241802 14348.221143 14465.517362 14633.987441 14839.929268 15073.814283 15303.986204 15516.501739 15717.450855 15898.303392 16037.804114 16162.444960 16321.081940 16547.274845 16816.548637 17115.611522 17436.701803 17762.950653 18039.323156 18239.382586 18367.344761 18413.879658 18396.494057 18368.067802 18380.405138 18455.507363 18593.094634 18764.766839 18925.269783 19063.291256 19162.375924 19231.706380 19300.013737 19373.261700 19461.603968 19590.232898 19737.263348 19868.319162 19964.154023 20009.645593 20028.817307 20078.557418 20179.152663 20266.779664 20301.458653 20267.707837 20201.542818 20149.821090 20113.263199 20065.759146 19986.071124 19889.041059 19783.973342 19673.703555 19567.505887 19460.671390 19348.857467 19233.637545 19107.941652 18958.984364 18785.767518 18593.832425 18387.406693 18180.424157 17987.411549 17833.193103 17726.775466 17658.599162 17612.210496 17566.287635 17503.191579 17408.590648 17290.466135 17163.233568 17036.284165 16907.853797 16770.523831 16617.649794 16448.632729 16271.584836 16126.189299 16049.448469 16064.064699 16146.448834 16243.454133 16304.657358 16309.104093 16264.025520 16183.813689 16081.035490 15970.879106 15872.554457 15798.623566 15747.596923 15707.880962 15656.919225 15579.743292 15478.949757 15366.209952 15250.840854 15130.993141 15006.527590 14887.321588 14788.151673 14714.068458 14652.822342 14579.394536 14462.347108 14266.200713 13981.346018 13623.427697 13224.059986 12883.403095 12673.671449 9443.187258 9496.879573 9602.776989 9694.759398 9701.864829 9611.078858 9441.271957 9198.743989 8837.576495 8269.546565 7351.788931 5537.719112 891.764050 -9901.687534 -26662.367316 -42084.310729 -50486.445809 -53339.441852 -53474.272082 -51653.551577 -46532.510270 -35416.565358 -19890.955496 -7004.035041 109.803176 3456.427050 5344.835545 6615.608946 7405.615700 7830.327158 8065.494357 8237.233238 8392.280523 8536.453777 8686.016785 8879.959612 9151.395832 9515.853967 9966.197847 10474.366713 11008.776137 11527.985508 11999.776971 12405.375355 12746.067754 13034.642064 13281.995364 13491.163899 13664.422466 13814.497353 13942.687464 14040.884587 14095.729917 14103.850214 14083.889537 14068.386225 14089.825641 14171.304089 14319.422678 14506.899151 14678.275312 14786.495089 14808.455459 14743.384819 14610.128568 14433.683681 14232.767666 14017.886797 13795.140036 13569.650723 13350.776385 13153.060328 12986.293809 12853.729108 12763.784061 12733.309582 12772.950981 12872.821154 13003.004619 13128.084663 13225.558831 13296.655612 13360.188864 13437.939551 13543.847187 13676.998674 13826.640933 13978.441516 14118.749605 14238.395963 14337.082176 14434.386579 14560.419768 14730.356092 14939.197064 15170.791599 15403.338609 15621.803185 15820.136866 15993.173423 16137.768381 16272.504197 16435.175798 16649.311305 16911.680253 17209.544389 17528.509387 17841.539144 18112.850145 18314.082047 18433.651270 18473.960810 18460.476758 18437.787202 18451.160043 18522.967856 18650.717688 18809.115371 18964.392347 19093.604545 19187.436691 19253.196844 19308.945076 19371.738833 19455.825293 19567.572860 19695.074099 19813.307384 19905.015226 19965.306373 20013.569994 20079.604497 20176.302303 20261.041277 20301.282714 20288.781699 20243.485651 20196.949949 20157.344649 20110.433653 20043.649520 19959.147473 19863.753207 19762.075926 19656.319875 19545.086806 19426.537602 19300.001356 19161.220290 19004.340230 18827.785617 18633.658496 18429.039848 18225.748610 18040.529894 17890.861535 17784.529561 17714.997518 17664.372060 17612.474973 17541.829978 17444.555044 17326.263332 17199.179980 17072.677902 16946.820723 16813.911428 16666.491951 16505.035513 16343.185057 16213.965385 16149.488116 16162.088771 16230.097390 16309.924013 16356.933201 16351.062949 16297.645961 16209.895449 16103.360346 15994.304054 15897.681749 15823.116999 15770.020578 15725.731474 15671.355314 15593.484510 15493.581108 15379.477504 15258.456893 15132.650452 15004.271640 14882.087441 14778.350218 14695.702088 14624.240310 14540.501658 14412.526473 14210.777934 13926.627821 13576.264028 13198.816890 12848.019850 12614.005617 12521.942483 12980.614203 13094.244396 13119.748374 12970.180591 12645.942714 12204.736728 11680.748880 11066.476751 10375.935284 9657.917232 8953.584936 8186.006080 7459.419858 6792.394639 6167.098145 5570.596544 5050.516624 4540.045172 4152.910468 3777.240708 3536.549560 3250.605731 3022.526935 2858.678582 2738.504634 2647.943068 2573.144147 2504.119537 2434.309052 2360.221996 2280.363575 2194.472533 2103.028536 2006.967888 1907.490606 1805.911003 1703.542535 1601.615618 1501.224967 1403.300866 1308.598446 1217.699733 1131.024329 1048.845516 971.309384 898.455181 830.235520 766.535520 707.190200 651.999746 600.742467 553.185420 509.092808 468.232343 430.379816 395.322161 362.859269 332.804831 304.986442 279.245184 255.434855 233.421001 213.079839 194.297181 176.967390 160.992426 146.280988 132.747769 120.312823 108.901027 98.441647 88.867979 80.117055 72.129413 64.848901 58.222521 52.200295 46.735145 41.782793 37.301653 33.252742 29.599579 26.308089 23.346508 20.685277 18.296942 16.156050 14.239041 12.524144 10.991271 9.621905 8.399003 7.306880 6.331101 5.458337 4.676124 3.972284 3.333263 2.736434 2.160404 1.859741 12673.671449 12779.817581 12861.511738 12848.843048 12697.862740 12398.745108 11976.376993 11455.473858 10852.328729 10188.385649 9492.860775 8784.647569 8065.797586 7371.156404 6713.301764 6100.758963 5526.947795 5006.530726 4532.861509 4125.428480 3773.287664 3481.206590 3224.110905 3013.873697 2854.108565 2736.320275 2646.877534 2572.800268 2504.141812 2434.514840 2360.499180 2280.651528 2194.737296 2103.249596 2007.133399 1907.595490 1805.955406 1703.530313 1601.552989 1501.119431 1403.160402 1308.430939 1217.512590 1130.824233 1048.638286 971.099921 898.247464 830.032662 766.339838 707.003314 651.822683 600.575767 553.029239 508.947009 468.096576 430.253593 395.204909 362.750375 332.703675 304.892422 279.157733 255.353450 233.345165 213.009145 194.231247 176.905878 160.935035 146.227451 132.697848 120.266302 108.857710 98.401354 88.830542 80.082318 72.097226 64.819122 58.195014 52.174929 46.711794 41.761334 37.281969 33.234719 29.583107 26.293064 23.332830 20.672849 18.285673 16.145854 14.229837 12.515856 10.983826 9.615239 8.393055 7.301606 6.326488 5.454467 4.673386 3.972091 3.340497 2.771255 2.268324 1.936820 1.799309 12521.942483 12577.224389 12673.392105 12740.711162 12717.659598 12565.941184 12275.251384 11860.612369 11344.869947 10750.211641 10098.417197 9412.023526 8709.868320 8007.953168 7325.877922 6677.966169 6070.267048 5505.778629 4988.974330 4524.058057 4116.213468 3764.657929 3466.077698 3214.435188 3010.398095 2853.647642 2736.672563 2647.167235 2572.876602 2504.022149 2434.280306 2360.215860 2280.362802 2194.472522 2103.028559 2006.967895 1907.490607 1805.911003 1703.542534 1601.615618 1501.224967 1403.300866 1308.598446 1217.699733 1131.024329 1048.845516 971.309384 898.455181 830.235520 766.535520 707.190200 651.999746 600.742467 553.185420 509.092808 468.232343 430.379816 395.322161 362.859269 332.804831 304.986442 279.245184 255.434855 233.421001 213.079839 194.297181 176.967390 160.992426 146.280988 132.747769 120.312823 108.901027 98.441647 88.867979 80.117055 72.129413 64.848901 58.222521 52.200295 46.735145 41.782793 37.301653 33.252742 29.599579 26.308089 23.346508 20.685277 18.296942 16.156050 14.239041 12.524145 10.991272 9.621910 8.399018 7.306930 6.331266 5.458879 4.677898 3.978104 3.352275 2.800213 2.337848 1.994202 1.817846 1.766303 1.859741 1.684337 1.411618 1.200581 1.028037 0.881321 0.755145 0.646305 0.552413 0.471495 0.401850 0.341995 0.290632 0.246623 0.208972 0.176810 0.149379 0.126019 0.106156 0.089292 0.074996 0.062896 0.052671 0.044042 0.036773 0.030657 0.025521 0.021213 0.017606 0.014591 0.012074 0.009976 0.008230 0.006779 0.005576 0.004579 0.003754 0.003074 0.002513 0.002051 0.001671 0.001360 0.001105 0.000896 0.000726 0.000587 0.000474 0.000382 0.000307 0.000247 0.000198 0.000158 0.000127 0.000101 0.000081 0.000064 0.000051 0.000040 0.000032 0.000025 0.000020 0.000016 0.000012 0.000010 0.000008 0.000006 0.000005 0.000004 0.000003 0.000002 0.000002 0.000001 0.000001 0.000001 0.000001 0.000000 0.000000 0.000000 0.000000 0.000000 0.000000 0.000000 -0.000000 -0.000000 -0.000000 -0.000000 -0.000000 -0.000000 -0.000000 -0.000001 -0.000001 -0.000001 -0.000001 -0.000001 -0.000002 -0.000002 -0.000003 -0.000004 -0.000005 -0.000006 -0.000008 -0.000010 -0.000013 -0.000016 -0.000020 -0.000026 -0.000032 -0.000040 -0.000051 -0.000063 -0.000079 -0.000098 -0.000122 -0.000151 -0.000188 -0.000232 -0.000287 -0.000354 -0.000436 -0.000536 -0.000657 -0.000806 -0.000986 -0.001205 -0.001470 -0.001790 -0.002177 -0.002644 -0.003205 -0.003879 -0.004687 -0.005656 -0.006813 -0.008195 -0.009841 -0.011799 -0.014125 -0.016883 -0.020148 -0.024005 -0.028557 -0.033918 -0.040222 -0.047623 -0.056297 -0.066446 -0.078301 -0.092126 -0.108222 -0.126930 -0.148637 -0.173783 -0.202862 -0.236435 -0.275130 -0.319653 -0.370796 -0.429445 -0.496587 -0.573321 -0.660870 -0.760588 -0.873973 -1.002679 -1.148526 -1.313514 -1.499835 -1.709887 -1.946285 -2.211874 -2.509743 -2.843237 -3.215968 -3.631828 -4.094998 -4.609958 -5.181496 -5.814710 -6.515022 -7.288170 -8.140215 -9.077538 -10.106833 -11.235098 -12.469627 -13.817990 -15.288014 -16.887763 -18.625503 -20.509677 -22.548866 -24.751765 -27.127175 -29.684104 -32.432200 -35.383289 -38.556645 -41.996311 -45.847373 -50.355807 -53.067408 1.799309 1.743538 1.590849 1.382458 1.191748 1.024739 0.879747 0.754163 0.645566 0.551805 0.470977 0.401403 0.341609 0.290298 0.246334 0.208723 0.176595 0.149194 0.125860 0.106019 0.089175 0.074896 0.062811 0.052598 0.043981 0.036720 0.030613 0.025483 0.021182 0.017580 0.014568 0.012055 0.009960 0.008216 0.006768 0.005566 0.004571 0.003748 0.003068 0.002508 0.002047 0.001668 0.001357 0.001103 0.000894 0.000724 0.000585 0.000473 0.000381 0.000307 0.000246 0.000197 0.000158 0.000126 0.000101 0.000080 0.000064 0.000051 0.000040 0.000032 0.000025 0.000020 0.000016 0.000012 0.000010 0.000008 0.000006 0.000005 0.000004 0.000003 0.000002 0.000002 0.000001 0.000001 0.000001 0.000001 0.000000 0.000000 0.000000 0.000000 0.000000 0.000000 0.000000 -0.000000 -0.000000 -0.000000 -0.000000 -0.000000 -0.000000 -0.000000 -0.000001 -0.000001 -0.000001 -0.000001 -0.000001 -0.000002 -0.000002 -0.000003 -0.000004 -0.000005 -0.000006 -0.000008 -0.000010 -0.000013 -0.000016 -0.000020 -0.000026 -0.000032 -0.000040 -0.000050 -0.000063 -0.000079 -0.000098 -0.000122 -0.000151 -0.000187 -0.000232 -0.000286 -0.000353 -0.000435 -0.000535 -0.000656 -0.000804 -0.000984 -0.001203 -0.001467 -0.001787 -0.002174 -0.002639 -0.003200 -0.003873 -0.004680 -0.005647 -0.006803 -0.008183 -0.009827 -0.011783 -0.014106 -0.016860 -0.020121 -0.023974 -0.028520 -0.033875 -0.040172 -0.047565 -0.056230 -0.066368 -0.078212 -0.092023 -0.108103 -0.126793 -0.148481 -0.173604 -0.202658 -0.236202 -0.274864 -0.319352 -0.370455 -0.429059 -0.496150 -0.572829 -0.660316 -0.759966 -0.873276 -1.001898 -1.147654 -1.312542 -1.498754 -1.708687 -1.944955 -2.210403 -2.508120 -2.841449 -3.214002 -3.629672 -4.092637 -4.607379 -5.178684 -5.811651 -6.511701 -7.284572 -8.136326 -9.073343 -10.102318 -11.230250 -12.464433 -13.812438 -15.282094 -16.881464 -18.618816 -20.502592 -22.541366 -24.743805 -27.118617 -29.674502 -32.420085 -35.363839 -38.513803 -41.875964 -45.437190 -49.070255 -51.653683 -52.658277 1.766303 1.751020 1.681246 1.537856 1.362757 1.185873 1.023543 0.879951 0.754727 0.646178 0.552374 0.471483 0.401846 0.341994 0.290632 0.246623 0.208972 0.176810 0.149379 0.126019 0.106156 0.089292 0.074996 0.062896 0.052671 0.044042 0.036773 0.030657 0.025521 0.021213 0.017606 0.014591 0.012074 0.009976 0.008230 0.006779 0.005576 0.004579 0.003754 0.003074 0.002513 0.002051 0.001671 0.001360 0.001105 0.000896 0.000726 0.000587 0.000474 0.000382 0.000307 0.000247 0.000198 0.000158 0.000127 0.000101 0.000081 0.000064 0.000051 0.000040 0.000032 0.000025 0.000020 0.000016 0.000012 0.000010 0.000008 0.000006 0.000005 0.000004 0.000003 0.000002 0.000002 0.000001 0.000001 0.000001 0.000001 0.000000 0.000000 0.000000 0.000000 0.000000 0.000000 0.000000 -0.000000 -0.000000 -0.000000 -0.000000 -0.000000 -0.000000 -0.000000 -0.000001 -0.000001 -0.000001 -0.000001 -0.000001 -0.000002 -0.000002 -0.000003 -0.000004 -0.000005 -0.000006 -0.000008 -0.000010 -0.000013 -0.000016 -0.000020 -0.000026 -0.000032 -0.000040 -0.000051 -0.000063 -0.000079 -0.000098 -0.000122 -0.000151 -0.000188 -0.000232 -0.000287 -0.000354 -0.000436 -0.000536 -0.000657 -0.000806 -0.000986 -0.001205 -0.001470 -0.001790 -0.002177 -0.002644 -0.003205 -0.003879 -0.004687 -0.005656 -0.006813 -0.008195 -0.009841 -0.011799 -0.014125 -0.016883 -0.020148 -0.024005 -0.028557 -0.033918 -0.040222 -0.047623 -0.056297 -0.066446 -0.078301 -0.092126 -0.108222 -0.126930 -0.148637 -0.173783 -0.202862 -0.236435 -0.275130 -0.319653 -0.370796 -0.429445 -0.496587 -0.573321 -0.660870 -0.760588 -0.873973 -1.002679 -1.148526 -1.313514 -1.499835 -1.709887 -1.946285 -2.211874 -2.509743 -2.843237 -3.215968 -3.631828 -4.094998 -4.609958 -5.181496 -5.814710 -6.515022 -7.288170 -8.140215 -9.077538 -10.106833 -11.235098 -12.469627 -13.817990 -15.288014 -16.887761 -18.625498 -20.509660 -22.548812 -24.751588 -27.126600 -29.682231 -32.426095 -35.363394 -38.491790 -41.785461 -45.149535 -48.315601 -50.841276 -52.111233 -52.432847 -53.067408 -56.611667 -63.108478 -69.438261 -75.793471 -82.334266 -89.099821 -96.099874 -103.334238 -110.798798 -118.487252 -126.391603 -134.502273 -142.808100 -151.296324 -159.952557 -168.760777 -177.703321 -186.760905 -195.912649 -205.136120 -214.407401 -223.701168 -232.990792 -242.248472 -251.445390 -260.551909 -269.537833 -278.372751 -287.026514 -295.469905 -303.675580 -311.619353 -319.281862 -326.650581 -333.721943 -340.503129 -347.012790 -353.279896 -359.339990 -365.228525 -370.970894 -376.565537 -381.942570 -386.866039 -390.843840 -393.084609 -393.266552 -391.857399 -391.815193 -396.096350 -407.519187 -421.055907 -426.880132 -421.145044 -404.481126 -390.067968 -380.602760 -383.356542 -395.308772 -424.284381 -449.801339 -456.879498 -445.759963 -417.050046 -342.174258 -274.200736 -281.925779 -336.982652 -416.944065 -550.747535 -789.799275 -996.148749 -1214.401050 -1637.684465 -2027.524210 -2186.879671 -2123.303120 -1903.208850 -1540.684775 -1108.604062 -702.486784 -516.772810 -478.145326 -634.807666 -929.047917 -998.435685 -700.833468 -98.976389 774.015686 2012.369343 2933.380058 4062.905666 5333.398456 6412.841135 7459.737339 8239.945752 8891.708639 9318.270557 9547.535745 9634.768367 -52.658277 -54.215682 -57.991325 -63.557803 -69.552231 -75.819818 -82.334509 -89.092289 -96.090109 -103.323973 -110.788606 -118.477356 -126.382122 -134.493291 -142.799696 -151.288573 -159.945535 -168.754558 -177.697981 -186.756517 -195.909283 -205.133846 -214.406283 -223.701266 -232.992160 -242.251159 -251.449433 -260.557335 -269.544653 -278.380956 -287.036065 -295.480720 -303.687520 -311.632200 -319.295308 -326.664213 -333.735261 -340.515589 -347.023894 -353.289314 -359.347697 -365.234949 -370.977180 -376.574882 -381.964981 -386.922674 -390.946103 -393.270883 -393.375464 -391.925463 -391.310156 -395.192422 -404.726888 -416.742165 -424.338612 -421.112587 -407.114379 -391.100837 -382.390602 -386.193718 -401.308816 -422.900494 -442.228131 -450.397009 -437.181124 -398.628160 -341.275779 -291.631977 -284.362615 -335.642600 -432.021066 -577.199846 -775.683786 -1011.539754 -1294.954080 -1633.167159 -1922.930064 -2067.209663 -2029.454001 -1832.462945 -1509.473902 -1130.153951 -777.444361 -540.640238 -479.605476 -608.271447 -839.565671 -914.693967 -684.247332 -118.799978 777.889502 1915.821945 2817.117281 3916.573804 5176.300532 6281.687743 7263.884528 8086.068939 8747.571938 9165.059055 9407.671338 9524.038654 9520.817236 -52.432847 -53.001811 -54.991780 -58.852973 -63.903849 -69.677393 -75.867081 -82.356844 -89.106750 -96.102000 -103.334891 -110.798998 -118.487313 -126.391622 -134.502278 -142.808102 -151.296325 -159.952558 -168.760777 -177.703321 -186.760905 -195.912649 -205.136120 -214.407401 -223.701168 -232.990792 -242.248472 -251.445390 -260.551909 -269.537833 -278.372751 -287.026514 -295.469905 -303.675580 -311.619353 -319.281862 -326.650581 -333.721943 -340.503128 -347.012789 -353.279894 -359.339992 -365.228556 -370.971147 -376.567573 -381.953229 -386.897995 -390.896398 -393.224156 -393.338291 -391.967240 -391.438983 -394.807664 -403.656687 -414.867568 -422.009837 -419.800385 -408.274041 -393.878642 -385.205127 -387.424050 -400.476684 -419.857309 -438.324237 -445.335807 -430.896644 -392.158797 -339.045489 -296.030306 -291.894066 -341.360807 -441.370570 -589.135204 -785.304004 -1028.530325 -1317.683384 -1625.133986 -1881.265688 -2012.116974 -1980.741010 -1794.971151 -1490.612103 -1129.358589 -790.847048 -558.574603 -492.424631 -592.643672 -763.117154 -816.926131 -606.996708 -73.697906 772.077323 1817.818055 2826.017608 3940.790268 5117.075288 6209.146992 7171.296399 7976.940277 8609.386458 9047.248855 9310.547078 9440.484562 9459.661343 9443.187258 7255.520880 150.893087 661.124486 3896.168116 2769.125255 -977.859095 3841.745391 2824.487498 4145.795983 78.562857 2581.922471 3344.184372 -2663.637464 5485.338899 7963.782893 2979.755586 7240.542832 9272.612894 9010.373171 9721.016028 4784.290819 -519.203546 3025.996367 4718.547192 5203.879125 -4438.215774 3555.549066 -17065.734087 4648.796218 6555.834691 7100.925870 4914.078651 5684.269750 3706.653168 6806.152603 8741.096320 5423.551384 6755.869327 9449.885438 9639.096654 5077.853132 1006.136247 3708.837430 5048.603389 4563.656639 7539.319368 -56282.674823 5793.648642 6882.803596 5373.400907 6138.178365 3299.138722 -41269.078588 7287.594244 7491.122416 9742.484141 9170.407691 8716.498557 9760.937711 8290.723070 -11285.657723 6277.494352 -1615.433782 4962.298179 7003.871346 4081.067632 5379.921267 3819.177760 5651.569140 6691.887606 9546.434447 -41862.602734 5581.886920 4497.890356 6966.574675 7866.534265 8320.558983 9560.836482 9132.321169 9515.216383 -54764.281066 -32255.001636 -8519.883364 4124.993726 -25665.952074 8739.259505 -54506.147542 -25382.718515 7886.283041 2022.405830 7695.730521 3297.479539 -28768.351249 3685.984159 3850.331025 9430.941884 6170.031702 -22327.589742 9463.906325 9073.840934 -26906.981364 9145.380049 -50339.306967 5887.495683 3010.919193 -1327.882378 7571.114884 -52638.260381 4676.967713 6557.065500 -23279.025020 7826.139681 7950.897032 -10262.930931 -19008.062719 8636.847372 5403.951283 5936.940743 7672.932960 5659.812392 -38351.075718 6149.470877 7600.078504 6390.273727 8922.572942 -18135.948939 8383.867560 6383.698393 -43106.969272 -56541.862569 3089.140320 -24346.834510 5197.843653 8429.176532 -56636.149918 -56487.676935 3487.803503 8258.977688 7084.686784 8619.776061 -56509.198964 -50164.481924 -50310.341550 8871.044433 7891.360368 -1449.366221 -33941.008084 8176.601245 7583.547901 -56202.411860 5840.681488 -7388.002109 7321.909805 -56160.821103 2881.061020 8357.156030 -50013.286336 6331.349022 -46831.631845 7644.169701 8272.895416 6480.670226 6956.013604 -56403.007458 -56449.846791 -42537.669423 9650.040174 -56627.766520 3133.789644 831.201721 -56493.493997 7297.268230 -11047.107228 -41655.302585 7690.632830 -55365.510876 2969.915184 7985.912141 8168.749161 9154.637462 -34435.593706 9189.277681 6416.664689 10218.513524 7744.964885 -56591.231845 -56624.099630 -46062.754683 7012.823061 8834.623141 -56528.717635 -2450.939501 8140.004640 -55711.106064 7514.545439 -55177.611332 -27800.070784 -21591.074337 10258.432668 -4585.208271 -1100.911426 7045.213063 8648.449768 8228.251281 6993.120755 7662.944454 -1173.447764 8090.948021 -8225.098304 -56516.053509 9237.824432 8182.409127 8650.896785 11832.034988 9296.534480 -56594.431343 7926.247298 7085.958878 5093.022555 8117.271670 9042.181035 -56481.404681 -56202.231208 10135.997230 -36016.902755 7116.558595 8295.095193 5873.452989 9458.981368 11023.230202 9841.018582 -56424.884803 7909.065327 7675.962453 9123.484183 7482.784046 -55854.090144 3290.548732 7993.944258 -32467.841961 -56262.825813 11519.179138 6975.569037 5288.051747 6707.867548 -36738.577026 8972.178370 10096.354495 8266.703515 8684.447738 7330.701852 8608.810257 8274.592145 8469.728596 10008.608507 7810.581094 -27548.838389 11697.413148 12506.132293 9966.138720 6561.742466 6399.981040 8937.301707 7843.183260 5801.261075 9415.662292 9906.667409 8147.342861 7161.528977 8859.511760 5671.336756 8873.678596 9410.513003 11029.265289 7494.961886 6917.402266 10702.584495 11571.632832 -5445.034151 -31447.133374 7486.853585 9836.900756 7919.737847 9692.211874 10530.325504 6786.546732 11536.447363 7995.187656 9439.875494 7153.491675 8580.111733 8814.026273 7834.947697 10307.529925 7528.294172 9969.128423 12044.044976 10559.337277 10760.533602 11971.232250 7506.465975 10152.613167 6955.993515 -56642.805235 8611.826720 8106.796209 10015.222315 8373.362632 8794.842756 8829.833911 10493.737800 11001.375341 -33647.273516 7916.839136 8389.176313 8612.952239 11317.274008 6625.535028 7968.257162 12290.990632 7493.915057 10390.501692 13079.166148 9204.822037 8906.350601 818.967904 8467.535558 8642.135257 10875.461093 9358.155604 11978.653861 11025.192673 12001.002097 10298.612628 9799.945081 12136.925133 7192.831045 -21373.822307 -55530.452535 -47686.538556 8098.116941 9091.771466 5810.832944 6975.022652 6813.739355 8017.120913 12862.662442 11983.088500 12082.712245 9642.391368 8054.163790 11353.686285 8564.419811 13300.129145 10376.143145 11878.811759 6410.531994 13014.119773 10626.724165 -53996.180633 10544.316830 12296.844318 7478.273809 12334.098908 12037.139258 12662.634420 12648.255203 13876.527890 10847.723802 6904.360315 7349.552288 13643.560096 10396.743388 12582.577941 9390.615815 8341.252782 12447.400064 10819.708591 11310.340624 9220.005003 10069.740499 8728.016379 11570.358451 11414.466909 10498.081832 8475.492112 9854.461721 7391.702910 7031.971843 10055.794135 13934.916549 10540.308740 10525.369028 11552.889252 12224.395796 10804.082849 9228.657788 8118.101378 -44508.928075 -575.758750 8857.744358 6418.464447 11947.731716 10084.266504 7211.410567 11535.152530 12841.351547 7698.183892 8174.363250 8665.262582 11714.661883 7295.846194 11185.851727 10125.300133 11552.473742 11265.244212 12934.127853 12781.544148 9927.133522 8397.971659 11898.329667 8182.691349 11297.430553 5367.058529 6747.483830 8878.468277 9309.575813 9015.125996 9964.053248 7998.432917 9706.818253 11666.427860 7613.990573 12562.404914 11200.204148 13113.896563 12425.445865 10802.047830 10777.393109 -136.098617 8119.609751 5864.789778 6997.759340 5998.371360 7998.690327 6567.304975 6643.060966 9670.436655 5968.838683 7011.798889 12410.664858 7499.605055 9575.255456 13399.071614 10821.724221 11919.784802 13449.368852 12219.732766 4861.189632 12795.187317 9183.406368 7411.590934 7471.566036 5087.502523 7503.162408 5571.550300 8398.467047 10810.703249 11456.783023 6812.044165 8461.524163 7732.556381 13216.169347 10346.201959 11615.334587 13039.684974 7779.176756 12870.734772 10704.047774 6612.353316 8042.879679 11735.324503 7021.684410 7702.896814 10993.994347 6340.287980 10918.379071 7943.443397 9539.908662 10129.740628 10315.957670 9763.538431 11691.447282 13388.496280 13868.096569 13048.597656 12273.627961 12781.554104 7828.764565 12197.196174 7076.921465 9652.202460 10069.360750 10079.560694 8212.586740 10720.005290 8857.932977 11406.760134 8294.799887 11636.647536 11533.688564 9680.883517 13553.142787 11772.301439 10457.971948 9142.012925 12155.398224 9310.124023 10746.315782 11325.999037 12336.677149 10816.737649 7335.219572 10062.522062 5722.631685 9157.152992 9375.687231 6437.106921 9960.097555 12993.622271 10772.905843 8899.072121 10571.307408 11694.206658 9847.051826 12232.054024 13279.526954 11202.521301 8075.145264 7445.410931 7109.236953 5421.239327 7424.791099 7098.127395 5928.804676 5959.164703 8795.255710 9036.010638 11165.728804 10407.825996 10975.219003 8934.577630 8189.166431 11195.465385 12512.894933 13271.233267 12846.884734 12394.980881 8766.708219 10913.197835 4864.117136 5001.282990 3635.461546 8312.107028 9674.104605 8148.074937 8057.360942 8396.027507 5417.540511 11651.883715 7602.327594 11142.995545 12358.707907 12406.721545 11910.079300 11847.460075 12367.246925 13394.671816 12135.081715 12812.453987 1349.368880 4864.507582 2254.601634 5346.082547 9065.849339 9340.337942 6205.724038 8178.311568 6522.930713 7400.000921 9270.818873 10612.156026 7106.771905 11712.253533 12214.447369 13411.305486 11279.128688 11924.157083 13250.982509 8471.472290 1953.054232 1944.843166 1983.002896 4102.848354 2109.273181 5566.421037 7329.015716 10633.864322 5493.186592 7463.374425 6531.098921 6584.451698 8898.723018 8224.929860 10928.950670 12067.844815 8873.277061 13224.476420 8415.401022 13624.450237 2260.681323 3586.225677 1773.214806 1263.922001 7974.487460 3392.019947 6076.077292 5915.720083 5790.040015 7114.621407 4794.899591 7443.073094 6587.597655 10935.629720 8559.620218 13876.694706 9907.055348 13602.990251 9541.628709 13318.632979 2232.996658 1998.231028 2172.479579 2201.281088 2495.021273 3935.896470 4361.559847 6505.663964 5419.382913 6232.819874 4592.129538 6979.216291 12060.600353 7124.294434 8272.833377 10728.863372 9629.555417 9517.796395 11479.205191 9318.522444 2114.219418 1628.653978 2953.395677 1354.523233 2307.441923 5015.346097 3014.715521 4195.732690 5602.007782 4096.872090 7176.107819 6868.181878 6280.026137 6260.820232 9573.080972 9056.114801 9071.068285 13126.129547 9318.890034 9131.833478 2791.794429 1368.316300 1917.600609 1793.434428 3453.325448 3206.266829 4380.311437 6266.187323 5580.015512 6380.879368 7273.810341 8287.409833 7855.306905 9775.411485 10103.398090 14106.180710 13051.665911 14349.756424 9093.952991 9420.677210 5637.228087 608.076600 2468.297844 1978.135193 2079.218552 1794.933043 1996.252444 3606.698562 3239.452080 3863.168634 8386.128509 6680.627498 8643.518907 6070.502