<VTKFile type="PolyData">
<PolyData>
<Piece NumberOfPoints="6715" NumberOfVerts="6715" NumberOfLines="0" NumberOfStrips="0" NumberOfPolys="0">
<PointData>
<DataArray type="Float64" Name="Pressure" format="ascii">
 10029.658908 9564.775127 8838.284099 8368.989574 8168.385525 8155.718494 8506.489629 8535.060571 7664.465344 5764.674493 6022.227170 8731.966423 9133.073050 -923.612831 -14504.295472 -11473.909114 412.997164 5388.860678 6401.537425 12771.966029 15875.818969 3554.544239 1810.523922 12596.728790 13902.258360 12248.771025 11540.181534 10487.639535 9524.647611 8921.568946 8717.013608 7349.037843 6660.444851 7703.634246 7926.611125 7774.870842 9575.374007 10795.262414 11323.786860 11988.197649 12617.429957 13126.151467 13751.172293 14065.174185 14099.728736 13617.934347 12968.541106 13066.390600 13859.161181 14543.526097 14712.836925 14551.007229 15349.414039 16132.904565 17646.225341 19258.934331 19358.960859 18203.252374 17557.866185 18253.958148 19195.247905 19661.535498 21066.812792 22155.905701 22262.019684 21999.456018 21684.021862 21886.863973 22358.813906 22502.483573 22947.137693 23136.498937 23166.144783 23443.071191 23434.367127 23802.369711 24425.421432 25104.090330 25060.747223 24742.646039 24502.781537 24077.732563 23903.392493 24091.867529 24394.403934 24547.738018 24621.559652 24439.129542 24242.210493 24104.488554 24025.716207 25011.263199 25509.948917 25405.869817 24694.287500 24254.667750 24321.365773 24195.354224 23833.209558 23783.170761 23952.280009 24809.572590 25403.286365 25567.565670 25645.319141 25456.754811 24798.753408 24624.989336 25285.557363 25351.644338 25217.184199 25264.774516 25394.330673 25559.019814 25564.547590 24943.222110 24947.196084 25432.654017 25726.103529 25506.604557 25604.106365 25302.917143 24973.556299 24649.150408 24267.565522 23609.798397 23723.008868 23871.558235 24475.849498 25006.267804 24442.566817 23591.102906 23212.491429 22991.469872 22741.483046 22099.258765 21603.669389 21482.426658 21500.945759 21382.326683 21337.038781 21134.321246 21246.923397 21279.977449 20797.551281 20523.654182 20322.921335 20085.786174 19711.987616 19269.744435 18896.336615 18839.961729 18914.407550 18705.045448 18310.807211 17801.736486 17426.986388 16999.348842 16589.530652 16465.355162 16334.538326 16119.893772 15904.822011 15812.555438 15918.541668 15708.955702 15385.303620 15154.438748 14986.101645 14827.105692 14675.756749 14414.416316 14099.531465 13762.524284 13700.823409 13693.624191 13685.846985 13553.244092 13317.195902 13243.143419 13236.514549 13080.479305 13011.016028 13052.494292 13128.023369 13198.681896 13331.706578 13388.733453 13416.889703 13280.251848 13012.732902 12854.919454 12821.863916 12561.486687 12125.076758 11852.616972 11828.542517 11922.586267 12211.777618 12589.680911 13001.996853 11040.505623 10569.917549 10100.489824 9696.545324 9228.359852 8939.876961 8942.735109 8995.164804 9002.210427 8618.205282 7525.778557 6902.533231 6850.409638 6654.966967 3360.723709 -7953.471769 -17151.111750 -18593.952648 -16566.885975 -12318.549075 -2740.933538 4141.819357 4773.795250 7943.947106 10609.044944 11557.230115 11440.379558 10272.507145 9083.110015 8469.978953 8375.416043 8266.449408 7718.863204 7415.610499 7659.507879 7902.851297 8486.947530 9844.184798 11037.415732 11902.680758 12526.103495 12876.166450 13264.648486 13798.132601 14288.332810 14245.582557 13783.637780 13329.953825 13329.887622 13897.275960 14549.771999 14816.912978 15068.394740 15734.795161 16816.924133 18145.931586 19330.638012 19809.136710 19538.125744 19369.129658 19994.459751 20872.248416 21343.346409 22178.292101 23174.550640 23456.308937 23054.603375 22784.112158 22711.472899 22752.401429 23096.609590 23629.362570 23902.562415 23910.069761 24019.022433 24129.508195 24369.802549 24863.998513 25223.044783 25133.339071 24816.008768 24423.637244 24082.059955 23936.547956 24007.244406 24348.622513 24660.208298 24696.832992 24607.192472 24178.087375 23789.489265 24048.986307 24632.688513 24950.723277 24906.066286 24616.920330 24433.653238 24424.885376 24433.225458 24176.058534 23936.718447 24224.999229 24911.816878 25447.710595 25672.737641 25740.106152 25427.510070 24928.949642 24740.400103 24915.766326 25114.171059 25040.656981 25073.109332 25331.829702 25378.467215 25012.313169 24715.602940 24948.510828 25236.345557 25164.456744 25173.378312 25276.461215 25208.242614 24931.159327 24741.670371 24267.606034 23631.046071 23548.888971 23930.284005 24286.584006 24586.054857 24343.550694 23675.182781 23281.976652 22907.647106 22311.468557 21887.635524 21682.957267 21464.736895 21342.405301 21234.167986 21191.034384 21169.077975 21025.217990 20759.303074 20482.302554 20284.270699 20128.770722 19911.208564 19530.864954 19099.114986 18756.877540 18589.916969 18533.777858 18378.026431 18036.369344 17594.539662 17170.872966 16797.382665 16466.043644 16264.729258 16135.388962 15992.017739 15864.563021 15872.328188 15937.070255 15839.218122 15622.697920 15412.751029 15215.452525 15003.247045 14800.671586 14567.992559 14393.469593 14248.187707 14058.396441 14010.119451 14059.756062 13967.805091 13828.015493 13776.432864 13724.481260 13596.050566 13459.435245 13394.042168 13435.141467 13541.076782 13703.399956 13818.297206 13760.854360 13543.888611 13310.926585 13180.981409 13138.481792 13007.668638 12722.588927 12469.798892 12421.540892 12608.195039 12876.300268 13189.708562 13531.589850 13833.061118 11456.758205 11290.167426 10945.019933 10553.110398 10190.174122 9840.645535 9568.380302 9388.280303 9271.281022 9235.825716 9119.021101 8659.273436 7843.644277 6880.062780 5991.516648 4686.602620 371.332272 -5967.816569 -9137.108548 -10167.988435 -8994.576226 -6252.211669 -3773.962790 -529.943247 3884.413064 7320.098325 8987.837376 9175.151623 8514.823745 7858.081879 7577.956501 7678.231555 7762.676093 7689.179337 7682.256312 7849.518310 8225.663836 8949.776592 9953.962891 11005.758485 11925.209850 12633.351979 13118.967806 13506.764417 13889.614934 14178.035721 14163.104822 13885.249983 13639.894942 13655.346752 14009.590263 14506.907106 14977.925442 15505.386118 16200.169407 17160.939777 18229.695848 19144.679042 19713.024276 19965.258852 20255.129192 20817.809995 21511.969236 22192.464318 22923.990976 23591.224710 23830.151803 23635.186045 23377.012144 23206.383554 23195.758655 23449.865407 23807.902396 24109.313127 24316.512206 24428.260611 24518.857191 24658.603711 24904.481607 25083.271088 25018.619512 24751.210694 24399.758078 24102.469492 23983.375600 24078.647588 24315.568086 24526.559433 24549.737044 24402.401873 24145.521032 23985.389469 24168.717335 24516.021641 24783.450339 24841.909552 24760.967160 24607.141227 24469.327990 24335.939903 24183.305804 24148.470158 24441.943813 24959.175228 25377.423053 25552.635755 25496.332017 25230.847559 24894.650074 24747.241201 24812.579328 24894.061232 24890.899397 24922.956356 25080.976250 25176.058402 25038.662925 24859.640172 24847.182737 24934.126784 24953.310298 24983.754983 25033.972035 25025.755515 24856.621360 24553.790641 24124.968850 23721.592656 23596.068085 23810.661282 24072.434024 24193.975027 23970.072004 23492.491551 23053.012726 22627.504443 22189.252275 21874.326430 21640.960161 21436.468297 21277.615122 21160.943592 21117.421813 21098.415746 20932.708193 20640.304960 20369.671769 20163.198982 19986.404571 19736.479883 19378.035712 18992.863952 18688.232048 18501.147592 18354.570959 18145.943672 17838.152991 17470.126092 17096.290345 16770.224420 16500.415762 16290.794743 16162.286340 16062.131293 15975.595341 15945.741890 15913.034338 15821.057213 15667.348663 15481.160386 15294.983232 15120.081416 14949.411163 14771.377225 14580.335232 14404.040776 14259.588588 14206.829703 14203.958078 14159.940518 14071.873357 13982.090202 13880.202674 13759.158961 13646.303033 13593.492193 13625.669138 13719.161783 13837.621803 13919.704178 13880.274472 13738.420614 13583.188298 13477.551369 13393.526475 13274.730097 13087.871655 12904.127697 12851.922137 12970.527786 13193.658679 13477.629668 13790.184697 14056.599056 14187.352216 13001.996853 12096.311227 11002.288140 10326.336359 9993.073269 9721.450255 9275.772373 8560.387963 7849.263585 7331.681586 6841.901099 6190.589329 5669.150901 5256.636419 4770.287690 4204.956053 3805.829909 3382.460103 3540.043188 3768.551324 4039.763844 4381.430957 4402.608505 4243.685284 4002.044719 3728.718739 3445.890386 3167.003547 2900.105882 2649.743119 2418.236673 2206.438390 2014.192025 1840.657856 1684.555563 1544.351833 1418.405691 1305.077504 1202.805835 1110.156700 1025.850454 948.771661 877.966872 812.634444 752.109642 695.847440 643.404724 594.423044 548.612663 505.738315 465.606884 428.057019 392.950639 360.166159 329.593258 301.128976 274.674927 250.135423 227.416319 206.424403 187.067201 169.253057 152.891401 137.893117 124.170957 111.639959 100.217832 89.825287 80.386317 71.828408 64.082681 57.083986 50.770932 45.085874 39.974859 35.387545 31.277083 27.599994 24.316023 21.387982 18.781596 16.465337 14.410265 12.589866 10.979894 9.558218 8.304673 7.200917 6.230293 5.377695 4.629444 3.973168 3.397681 2.892874 2.449588 2.059454 1.714576 1.406725 1.123745 0.854549 0.715449 13833.061118 13328.766080 12493.803951 11571.941438 10950.486943 10596.169401 10246.646391 9775.940329 9159.360256 8502.381766 7951.742252 7427.836479 6864.288048 6343.899715 5852.257404 5377.127601 4896.742885 4528.208353 4279.459809 4262.200332 4329.856788 4440.334117 4503.865757 4434.683646 4250.967469 4004.560597 3729.479618 3445.807182 3166.501849 2899.391622 2648.919853 2417.370533 2205.575123 2013.363000 1839.883628 1683.848207 1543.716754 1417.843241 1304.584450 1202.376633 1109.784529 1025.528008 948.491707 877.722620 812.419762 751.919170 695.676616 643.249760 594.280872 548.480855 505.615000 465.490656 427.946857 392.845824 360.066206 329.497858 301.037942 274.588155 250.052859 227.337934 206.350175 186.997103 169.187049 152.829422 137.835087 124.116778 111.589513 100.170985 89.781892 80.346218 71.791439 64.048675 57.052773 50.742342 45.059739 39.951016 35.365833 31.257351 27.582095 24.299817 21.373337 18.768386 16.453445 14.399581 12.580286 10.971322 9.550564 8.297855 7.194858 6.224921 5.372947 4.625260 3.969495 3.394476 2.890110 2.447284 2.057772 1.714147 1.409769 1.139512 0.903665 0.749361 0.685407 14187.352216 13987.017417 13472.437818 12714.172750 11955.631046 11350.483401 10905.702552 10501.738098 10034.073348 9477.357793 8878.507141 8294.001724 7729.210416 7174.780946 6641.713654 6135.782570 5653.587445 5211.454172 4859.820797 4639.392096 4561.812053 4569.536716 4591.162827 4564.251596 4448.808431 4252.631129 4004.456425 3729.424845 3446.065311 3167.033406 2900.111213 2649.744422 2418.236919 2206.438395 2014.192006 1840.657845 1684.555558 1544.351832 1418.405691 1305.077504 1202.805835 1110.156700 1025.850454 948.771661 877.966872 812.634444 752.109642 695.847440 643.404724 594.423044 548.612663 505.738315 465.606884 428.057019 392.950639 360.166159 329.593258 301.128976 274.674927 250.135423 227.416319 206.424403 187.067201 169.253057 152.891401 137.893117 124.170957 111.639959 100.217832 89.825287 80.386317 71.828408 64.082681 57.083986 50.770932 45.085874 39.974859 35.387545 31.277083 27.599994 24.316023 21.387982 18.781596 16.465337 14.410265 12.589866 10.979894 9.558218 8.304673 7.200917 6.230293 5.377695 4.629446 3.973175 3.397704 2.892948 2.449833 2.060259 1.717225 1.415396 1.152914 0.935531 0.775175 0.693092 0.669044 0.715449 0.638965 0.522013 0.433837 0.363452 0.304936 0.255702 0.214145 0.179068 0.149492 0.124593 0.103667 0.086109 0.071404 0.059108 0.048846 0.040297 0.033186 0.027283 0.022390 0.018343 0.015001 0.012246 0.009980 0.008118 0.006592 0.005343 0.004323 0.003491 0.002814 0.002265 0.001819 0.001458 0.001167 0.000932 0.000743 0.000591 0.000469 0.000372 0.000294 0.000232 0.000183 0.000144 0.000113 0.000089 0.000069 0.000054 0.000042 0.000033 0.000025 0.000020 0.000015 0.000012 0.000009 0.000007 0.000005 0.000004 0.000003 0.000002 0.000002 0.000001 0.000001 0.000001 0.000001 0.000000 0.000000 0.000000 0.000000 0.000000 0.000000 0.000000 0.000000 0.000000 0.000000 0.000000 0.000000 0.000000 0.000000 0.000000 0.000000 0.000000 0.000000 -0.000000 -0.000000 -0.000000 -0.000000 -0.000000 -0.000000 -0.000000 -0.000000 -0.000000 -0.000000 -0.000000 -0.000000 -0.000000 -0.000000 -0.000000 -0.000000 -0.000000 -0.000000 -0.000001 -0.000001 -0.000001 -0.000001 -0.000002 -0.000002 -0.000003 -0.000004 -0.000005 -0.000006 -0.000008 -0.000010 -0.000013 -0.000017 -0.000022 -0.000028 -0.000036 -0.000046 -0.000058 -0.000074 -0.000094 -0.000118 -0.000149 -0.000188 -0.000236 -0.000296 -0.000371 -0.000464 -0.000580 -0.000722 -0.000898 -0.001115 -0.001382 -0.001709 -0.002110 -0.002601 -0.003200 -0.003930 -0.004817 -0.005894 -0.007200 -0.008778 -0.010683 -0.012978 -0.015738 -0.019050 -0.023017 -0.027760 -0.033420 -0.040162 -0.048176 -0.057685 -0.068945 -0.082255 -0.097956 -0.116444 -0.138171 -0.163654 -0.193486 -0.228342 -0.268989 -0.316297 -0.371252 -0.434965 -0.508688 -0.593827 -0.691960 -0.804847 -0.934452 -1.082960 -1.252791 -1.446626 -1.667419 -1.918423 -2.203204 -2.525665 -2.890064 -3.301032 -3.763592 -4.283175 -4.865633 -5.517257 -6.244782 -7.055398 -7.956753 -8.956952 -10.064556 -11.288570 -12.638432 -14.123991 -15.755485 -17.543523 -19.499084 -21.633609 -23.959400 -26.491055 -29.250359 -32.282432 -35.726464 -39.822555 -42.313176 0.685407 0.662102 0.597100 0.509036 0.429891 0.361975 0.304232 0.255268 0.213825 0.178810 0.149277 0.124412 0.103514 0.085980 0.071294 0.059016 0.048769 0.040231 0.033131 0.027237 0.022352 0.018311 0.014975 0.012224 0.009962 0.008103 0.006580 0.005333 0.004314 0.003484 0.002809 0.002260 0.001815 0.001455 0.001164 0.000930 0.000741 0.000590 0.000468 0.000371 0.000294 0.000232 0.000183 0.000144 0.000113 0.000088 0.000069 0.000054 0.000042 0.000033 0.000025 0.000020 0.000015 0.000012 0.000009 0.000007 0.000005 0.000004 0.000003 0.000002 0.000002 0.000001 0.000001 0.000001 0.000001 0.000000 0.000000 0.000000 0.000000 0.000000 0.000000 0.000000 0.000000 0.000000 0.000000 0.000000 0.000000 0.000000 0.000000 0.000000 0.000000 0.000000 0.000000 -0.000000 -0.000000 -0.000000 -0.000000 -0.000000 -0.000000 -0.000000 -0.000000 -0.000000 -0.000000 -0.000000 -0.000000 -0.000000 -0.000000 -0.000000 -0.000000 -0.000000 -0.000000 -0.000001 -0.000001 -0.000001 -0.000001 -0.000002 -0.000002 -0.000003 -0.000004 -0.000005 -0.000006 -0.000008 -0.000010 -0.000013 -0.000017 -0.000022 -0.000028 -0.000036 -0.000046 -0.000058 -0.000074 -0.000093 -0.000118 -0.000149 -0.000187 -0.000236 -0.000296 -0.000371 -0.000463 -0.000578 -0.000721 -0.000896 -0.001113 -0.001379 -0.001706 -0.002106 -0.002596 -0.003194 -0.003922 -0.004809 -0.005884 -0.007187 -0.008763 -0.010665 -0.012957 -0.015713 -0.019020 -0.022982 -0.027718 -0.033371 -0.040104 -0.048108 -0.057605 -0.068852 -0.082146 -0.097830 -0.116297 -0.138000 -0.163456 -0.193258 -0.228079 -0.268686 -0.315950 -0.370854 -0.434509 -0.508168 -0.593236 -0.691289 -0.804086 -0.933592 -1.081989 -1.251699 -1.445399 -1.666044 -1.916885 -2.201488 -2.523755 -2.887943 -3.298682 -3.760994 -4.280310 -4.862481 -5.513797 -6.240994 -7.051261 -7.952245 -8.952053 -10.059246 -11.282829 -12.632239 -14.117325 -15.748318 -17.535802 -19.490667 -21.624068 -23.947359 -26.472012 -29.209355 -32.169041 -35.343262 -38.618010 -40.958647 -41.860990 0.669044 0.662980 0.633914 0.573561 0.500332 0.427321 0.361466 0.304332 0.255518 0.214089 0.179051 0.149487 0.124592 0.103666 0.086109 0.071404 0.059108 0.048846 0.040297 0.033186 0.027283 0.022390 0.018343 0.015001 0.012246 0.009980 0.008118 0.006592 0.005343 0.004323 0.003491 0.002814 0.002265 0.001819 0.001458 0.001167 0.000932 0.000743 0.000591 0.000469 0.000372 0.000294 0.000232 0.000183 0.000144 0.000113 0.000089 0.000069 0.000054 0.000042 0.000033 0.000025 0.000020 0.000015 0.000012 0.000009 0.000007 0.000005 0.000004 0.000003 0.000002 0.000002 0.000001 0.000001 0.000001 0.000001 0.000000 0.000000 0.000000 0.000000 0.000000 0.000000 0.000000 0.000000 0.000000 0.000000 0.000000 0.000000 0.000000 0.000000 0.000000 0.000000 0.000000 0.000000 -0.000000 -0.000000 -0.000000 -0.000000 -0.000000 -0.000000 -0.000000 -0.000000 -0.000000 -0.000000 -0.000000 -0.000000 -0.000000 -0.000000 -0.000000 -0.000000 -0.000000 -0.000000 -0.000001 -0.000001 -0.000001 -0.000001 -0.000002 -0.000002 -0.000003 -0.000004 -0.000005 -0.000006 -0.000008 -0.000010 -0.000013 -0.000017 -0.000022 -0.000028 -0.000036 -0.000046 -0.000058 -0.000074 -0.000094 -0.000118 -0.000149 -0.000188 -0.000236 -0.000296 -0.000371 -0.000464 -0.000580 -0.000722 -0.000898 -0.001115 -0.001382 -0.001709 -0.002110 -0.002601 -0.003200 -0.003930 -0.004817 -0.005894 -0.007200 -0.008778 -0.010683 -0.012978 -0.015738 -0.019050 -0.023017 -0.027760 -0.033420 -0.040162 -0.048176 -0.057685 -0.068945 -0.082255 -0.097956 -0.116444 -0.138171 -0.163654 -0.193486 -0.228342 -0.268989 -0.316297 -0.371252 -0.434965 -0.508688 -0.593827 -0.691960 -0.804847 -0.934452 -1.082960 -1.252791 -1.446626 -1.667419 -1.918423 -2.203204 -2.525665 -2.890064 -3.301032 -3.763592 -4.283175 -4.865633 -5.517257 -6.244782 -7.055398 -7.956753 -8.956952 -10.064555 -11.288569 -12.638427 -14.123975 -15.755435 -17.543360 -19.498550 -21.631867 -23.953723 -26.472545 -29.189990 -32.086059 -35.076520 -37.915021 -40.189848 -41.328888 -41.611949 -42.313176 -45.724966 -52.022475 -58.213672 -64.481593 -70.984632 -77.765315 -84.837887 -92.206818 -99.872436 -107.832513 -116.082656 -124.616340 -133.424847 -142.497191 -151.820045 -161.377698 -171.152029 -181.122514 -191.266264 -201.558099 -211.970653 -222.474532 -233.038502 -243.629726 -254.214045 -264.756280 -275.220559 -285.570612 -295.769991 -305.782120 -315.570065 -325.095881 -334.319424 -343.196541 -351.676754 -359.700774 -367.198544 -374.088914 -380.282272 -385.687411 -390.223469 -393.836871 -396.521375 -398.336898 -399.454013 -400.307642 -401.408305 -403.780385 -411.396573 -433.602786 -449.940326 -442.653341 -410.301296 -377.425970 -506.549175 -607.319691 -614.980124 -473.006505 -386.835250 -508.994539 -729.846513 -792.916151 -562.549805 -412.088194 -157.374998 -31.016427 66.717933 -78.155113 -488.688756 -1191.213945 -1992.104219 -2678.682165 -3226.901966 -2899.034515 -422.482669 111.876122 2013.911358 959.733178 -1172.096333 -1355.250262 -962.256138 -1139.440208 -538.447250 100.229804 2332.915118 3703.356505 3930.084341 3602.093120 4018.105673 4562.933072 4608.859593 5470.235143 6730.615756 7122.506677 7510.016505 8078.108871 8742.683105 9138.317941 9623.192334 10029.658908 -41.860990 -43.374358 -47.033755 -52.448920 -58.319791 -64.504002 -70.981947 -77.755003 -84.825237 -92.193496 -99.859011 -107.819222 -116.069638 -124.603709 -133.412711 -142.485657 -151.809224 -161.367700 -171.142964 -181.114491 -191.259389 -201.552471 -211.966366 -222.471672 -233.037142 -243.629928 -254.215856 -264.759732 -275.225671 -285.577390 -295.778440 -305.792252 -315.581921 -325.109556 -334.335096 -343.214496 -351.697400 -359.724617 -367.226122 -374.120659 -380.318312 -385.727345 -390.266132 -393.880250 -396.563153 -398.375319 -399.477212 -400.285202 -401.537191 -404.145801 -410.852115 -428.105852 -453.917338 -465.599315 -451.326635 -441.588745 -504.743108 -606.703644 -578.814593 -423.302466 -373.353311 -490.537150 -649.103495 -707.103970 -578.307352 -383.902856 -266.902838 -218.180755 -200.526522 -364.717622 -784.739132 -1408.678980 -2069.528244 -2654.930125 -3170.081121 -3164.621343 -1364.975556 1139.315894 1526.078249 147.632207 -1189.544964 -1828.549759 -1336.152184 -479.969139 -199.378898 548.960513 1945.712915 2802.134453 3208.682945 3313.247046 3639.189442 4318.279786 4975.159781 5922.533242 6923.603107 7674.424306 8310.358996 8884.984801 9352.953619 9686.497597 10091.867140 10568.995181 11040.505623 -41.611949 -42.168283 -44.103207 -47.855298 -52.780452 -58.441371 -64.551658 -71.006113 -77.771905 -84.839908 -92.207438 -99.872626 -107.832571 -116.082674 -124.616345 -133.424849 -142.497191 -151.820045 -161.377698 -171.152029 -181.122514 -191.266264 -201.558099 -211.970653 -222.474532 -233.038502 -243.629726 -254.214045 -264.756280 -275.220559 -285.570612 -295.769991 -305.782120 -315.570065 -325.095881 -334.319424 -343.196541 -351.676755 -359.700775 -367.198546 -374.088920 -380.282292 -385.687478 -390.223667 -393.837563 -396.524192 -398.345924 -399.463447 -400.307245 -401.765334 -404.858355 -411.592911 -426.120090 -448.110176 -465.644797 -469.341892 -468.394575 -473.835752 -468.522165 -412.609834 -352.409060 -366.387260 -472.772825 -604.860559 -666.642936 -615.229980 -494.790401 -390.033993 -321.085589 -350.713273 -552.258037 -955.324248 -1526.174653 -2138.875482 -2638.840933 -2807.542836 -2330.377538 -1189.902558 83.921324 416.812376 -150.182246 -949.683968 -1394.604671 -1280.961242 -785.609120 -110.154523 888.149225 2016.035997 2781.579504 3129.437908 3312.106265 3654.533977 4251.453517 4998.915686 5927.820332 6945.475869 7888.558710 8681.687922 9327.014458 9807.767557 10182.335374 10531.259733 10907.529200 11274.639213 11456.758205 6322.145607 4800.257083 4906.163855 955.819586 4219.140922 2993.094185 4088.431326 3053.050252 1336.580726 4078.123193 4719.705731 876.719715 4528.448353 5957.778431 5974.697715 3894.771120 6322.307205 9032.751994 7993.993926 9058.055640 3139.301151 -220.075935 2015.438281 4666.897596 2802.579019 4351.623730 648.859022 4853.474919 3311.222858 4619.184504 4994.980828 3892.802936 3532.070068 2056.958679 3872.416710 7914.575658 4523.575695 4896.920874 7457.884238 7891.521053 5145.681283 4384.685739 1357.234314 1525.684020 2246.998907 5298.928886 -9348.918462 3304.288596 4429.692945 4467.186481 3450.870590 4065.829514 4355.220513 6694.700643 5351.799811 8095.712337 7210.057971 6216.682670 8359.398507 7127.881987 5614.082052 4554.446200 -7295.067833 3985.798798 5379.640045 4398.019392 4511.210401 3580.937029 2601.920004 5507.471709 7985.338340 6350.707239 3579.643520 3366.626974 5670.526175 6929.556663 8128.493309 8659.955425 7816.202962 7854.643669 -8910.473049 9366.880891 2288.739602 5390.595182 4215.407243 7520.259358 51462.275315 5353.520731 6598.358652 4394.695079 6269.767859 4532.360009 10169.256368 4046.747411 4814.172175 7117.148643 3822.012499 -1986.136677 7501.536179 8176.076258 5705.015530 7714.306691 1977.545830 3743.158541 7169.974949 -22563.202619 5074.164128 28757.554658 3906.835938 6531.958646 7243.735019 6144.345477 6635.664827 7457.415919 4326.932606 7746.064367 4376.796469 5049.789539 7657.642289 5827.119715 5232.071596 3280.841987 6124.255300 5683.975868 8112.746490 19241.973791 5706.228819 6227.664897 32185.256931 6599.278694 6910.350207 4280.467062 4258.141791 7860.190572 9745.561749 46138.045745 5310.627286 6998.838881 6159.047991 8351.699162 16692.934109 5736.833785 49653.237225 6721.911014 5210.905200 16415.184382 5615.912175 7766.977588 9878.880221 -10360.424451 3906.387778 7578.275647 5364.643384 -2087.878026 3852.078387 7344.727679 -6946.827990 5026.974350 2399.263448 6658.258284 5743.049900 4495.980374 5103.071330 -9447.255083 48408.690050 712.505851 7785.683678 8577.664957 4871.147424 10060.017381 -5182.733030 4059.786664 7680.854719 7669.414319 6169.312589 -11873.297789 1842.025728 5757.199916 6747.032651 8064.603206 20914.902439 6946.060547 5184.497761 10114.145628 5486.121335 46214.561297 26119.161629 6739.757998 4535.050405 6073.592607 28309.266373 -10119.557923 6097.282922 30865.820914 5133.152724 -3698.618028 16971.444483 8099.553280 7640.139340 7180.321074 -21621.726470 5250.282217 6957.391416 6858.411464 5375.011657 5065.544487 -11349.859788 6418.984193 7857.033529 -8755.106948 7276.136278 5728.719583 7248.258988 10544.855384 6970.822737 11463.774045 7679.039546 8901.172960 6361.371196 6008.144235 7219.353694 36822.200846 31447.566453 9145.954566 4315.308431 5190.560276 6060.215652 4342.179107 7878.451696 10236.109883 8278.735556 36461.996389 5994.031556 5793.199124 7046.233982 8816.259561 -18715.838758 4787.342326 8843.651604 20693.464902 47404.222510 11597.129042 4465.702256 4011.988313 11138.375883 34314.968450 6689.389495 7469.328425 7751.792930 7118.686253 4356.531659 6492.219332 6758.164419 5999.268869 8427.316345 5932.499741 22490.728504 11454.877869 12751.529995 9570.130540 4240.166777 7007.985645 8146.982141 5777.799204 8951.673795 8154.294396 7776.882487 7421.611268 5452.034076 7389.534633 7390.652496 6096.360047 7315.814421 10572.771090 5830.148080 7901.710906 10020.903745 11108.813346 -14352.006399 11165.584164 5459.560118 10002.685249 7689.209234 8936.820456 10878.447379 4990.379574 10896.811473 6790.885469 8676.797216 4457.583134 7006.411806 8146.799139 6578.590266 9014.515826 5503.992920 8211.737393 12847.836538 10598.888712 10189.348102 12158.270652 4489.466811 9608.243606 9023.709959 17675.027148 6922.128849 7196.016133 8858.671054 6807.860751 6795.750789 9350.024989 10669.629602 11547.369687 52947.288827 6626.905698 7472.225590 8224.772435 12038.105625 7566.242924 5694.093592 12894.944990 5952.723869 9929.632569 13539.485376 9464.358772 6921.187231 -21164.372791 6823.856479 8124.127611 9847.777270 8613.511861 12668.870955 11029.390539 12862.721725 10138.369587 9150.171661 12581.999970 10643.777707 14460.840936 14900.791891 30792.023063 10836.661971 6574.464559 5150.793943 6009.194853 5587.806330 6561.679759 13571.314595 11967.829803 12279.819612 8222.635210 7281.692201 12400.103071 6231.082449 13733.257866 11794.277503 12653.388832 11373.162538 13854.780076 10387.056468 15798.465057 14018.103026 13463.740832 5796.077799 14271.701897 14834.426307 13575.868827 12676.671758 16137.619783 11666.359797 9217.460291 9418.556660 15717.214200 11979.479141 14059.705958 12968.997979 6560.418627 12527.854725 11062.535333 10653.578526 8362.957242 12374.057322 8477.276463 11693.355052 14022.142283 12318.093507 9607.453015 12173.409180 8717.165994 7451.422523 13095.149084 17480.491477 15643.140522 13161.463508 12251.685751 14028.542668 12836.603859 12679.621949 6309.634687 53759.146525 -16655.567568 10785.849537 8989.682827 13030.609872 10887.056045 7897.864722 13430.779302 15291.688629 10382.883205 9536.612431 11028.713665 14385.754687 9561.026943 13859.407389 9894.442395 15592.809015 12880.924753 13906.677836 13086.126796 13930.786356 6516.887656 14574.717419 10509.091880 13783.759354 7419.371324 7523.014491 10270.558766 12103.125192 11174.648872 13966.715472 9904.320588 12592.886625 14524.332821 11136.417525 16075.080659 14206.143324 13677.616078 13499.632710 12404.826963 9035.141357 -10797.426741 16350.809469 8398.982412 7938.763192 7555.378506 9079.760942 8523.098478 8046.704800 14696.923044 7077.138554 8683.413711 15432.618928 10531.391056 14134.816684 16152.570230 15237.808164 14361.605980 14181.758030 12935.851358 12655.114206 13278.396817 16498.647790 10896.067162 9988.820369 7971.143800 11799.324023 5927.484186 12614.508892 14964.455908 17242.462665 9734.403631 11462.224402 11186.336101 16965.205769 15282.132048 16584.005554 14885.417375 9194.145057 17436.352521 11749.610602 10768.452667 11324.346309 19390.611628 12105.382691 11837.282341 17321.291237 9988.705633 19093.418934 11479.191451 13731.191103 16936.067510 14711.337163 13980.180169 16662.650366 13349.703594 16856.924525 14597.787510 13945.585773 14460.988475 9058.948098 11357.887715 10519.666681 17865.531819 17732.701259 16088.544321 17057.967727 15637.320596 13784.918462 18996.969911 12219.216779 19756.687566 20067.134342 18726.118267 17291.366751 17845.673562 14888.772359 12563.210414 19690.989627 11164.290743 11902.249754 10914.071632 20751.387534 20106.670982 9970.193246 15774.871325 8744.166085 17755.971583 14683.731812 13304.010812 18219.001382 19559.543400 19253.374379 18143.615715 16567.303641 18096.779525 11198.653837 12122.417121 19638.986018 13793.443531 8535.158163 10443.120016 12241.153787 9600.109583 14959.496661 11712.367621 9399.189242 9905.562509 16127.213610 18070.473067 19855.945018 19531.514980 16359.555412 17906.645043 16392.456826 20294.554266 19596.037005 14716.900254 13003.662899 17730.967792 8036.327769 12927.559042 7965.702414 9782.294896 6206.932081 16145.686482 16640.246066 16556.740328 14322.816773 14861.759534 10926.428243 20904.382971 15531.412668 18469.189007 21675.764415 17598.679382 18589.582905 20582.325382 21114.656658 16395.688272 21033.615455 14766.058088 1921.578776 9882.645567 6115.303184 9834.185924 13190.589404 16205.161899 10578.862465 15297.076894 12142.800827 16020.268963 15705.021202 18584.518646 13711.056704 14438.083556 15535.449267 18686.997986 18764.950605 14867.157174 15245.671452 7914.105634 2180.662061 3605.724845 1319.294564 8292.790734 4915.296040 11258.998456 13833.924948 17079.768160 11687.346590 15148.246738 13553.470363 12331.550705 18577.107498 17355.794136 21946.074432 20479.306103 17493.617758 16638.021581 6396.007875 14849.869564 2240.756063 2388.476408 2575.189407 2119.230713 13042.015551 6995.791009 12632.438757 9329.415429 12417.458063 13192.215811 10886.878188 13276.786174 14235.786452 21892.333550 17474.431211 16924.122038 17418.491314 17118.748278 11936.174667 13256.521160 1693.054392 761.612295 1650.194437 2710.687926 4720.536979 9372.551031 8109.147968 9627.272494 11289.026063 13654.920173 10383.003767 15522.481252 21951.493213 14855.265207 17975.482883 20174.014113 19498.755601 15414.663146 11174.915840 13308.297021 2897.290577 3180.000464 4936.457660 1724.949013 5229.361325 10338.238373 7717.216127 10468.552485 12356.356944 8994.218425 14321.275055 14415.678524 10991.962580 13204.265057 18462.884291 18843.982525 18406.057101 15881.681561 7913.581474 7588.710649 1720.042659 2511.757846 350.859270 3326.079236 6626.068209 7189.253406 8542.419200 10044.084490 13251.583043 12676.904230 16076.371329 17418.080334 13686.511952 20242.818726 21360.769295 20529.580314 14752.938804 17236.038622 18818.124373 18124.859230 6705.127938 1745.774073 4648.362580 4607.085371 6412.053871 4077.700838 5292.915094 7520.980690 7829.887074 8283.399726 15602.979905 14172.167117 18750.740335 14467.181812 15910.931814 20223.080972 16491.667109 18913.3144