<VTKFile type="PolyData">
<PolyData>
<Piece NumberOfPoints="6715" NumberOfVerts="6715" NumberOfLines="0" NumberOfStrips="0" NumberOfPolys="0">
<PointData>
<DataArray type="Float64" Name="Pressure" format="ascii">
 4811.868558 4628.223471 4422.674010 4277.588489 4168.348221 4079.346237 3954.455371 3542.986165 1977.249084 -1214.914747 -7587.791550 -18543.176729 -28712.313408 -39019.547705 -44311.920704 -47166.893462 -49597.737852 -49506.603315 -46003.733097 -37562.142752 -29393.261442 -18912.197398 -10378.131542 -5119.821870 -752.879808 1852.909885 3310.350989 4308.496515 5077.843133 5806.819452 6449.267498 7067.424842 7581.757417 8080.531945 8527.115607 8977.982805 9345.573300 9673.559578 10015.469683 10376.027017 10726.665298 11035.040068 11370.932373 11706.186615 12019.319077 12323.048427 12561.184255 12772.345205 12940.305956 13070.153453 13158.975658 13233.065273 13330.990567 13464.515566 13615.471371 13760.716654 13923.054032 14084.938974 14233.176057 14355.535714 14473.935655 14583.353761 14678.059223 14741.918198 14789.765773 14831.365817 14835.158616 14825.956270 14849.547566 14905.676878 14986.492232 15097.499917 15231.740321 15369.623423 15503.813865 15628.202957 15774.591962 15939.060515 16083.456044 16203.570324 16289.383641 16370.149469 16450.782839 16543.053825 16615.285148 16666.923854 16732.152226 16788.214106 16801.744562 16785.443263 16799.356838 16837.595816 16876.389875 16886.124944 16845.460074 16770.773676 16715.420649 16697.521915 16699.159131 16669.389341 16606.938412 16538.697789 16482.182674 16458.193409 16460.573803 16445.955722 16424.239957 16431.294566 16476.992266 16511.440878 16485.626289 16463.842302 16463.377736 16488.334440 16577.050500 16685.809223 16734.545619 16703.188099 16634.574718 16563.106144 16476.060091 16396.986314 16312.183731 16257.040225 16240.527903 16234.613837 16265.407722 16350.232842 16433.297692 16482.034714 16502.760808 16496.742383 16463.921838 16426.305560 16412.721933 16432.596587 16443.608014 16438.116006 16434.533017 16503.343820 16634.716074 16782.218213 16879.125710 16941.128777 17008.497725 17027.150282 16987.432118 16964.011865 16931.044697 16871.836130 16820.928800 16865.157628 16978.609129 17055.350559 17082.223011 17079.016098 17084.730691 17082.535420 17020.540151 16909.848489 16870.200150 16899.052986 16975.660350 17074.966319 17161.414821 17245.779987 17319.268794 17384.974531 17430.391971 17461.436495 17504.657282 17542.989162 17589.435452 17705.339293 17884.931186 18085.348504 18230.542983 18350.708813 18473.759302 18568.760703 18662.182484 18786.226700 18906.207514 18993.177666 19048.126997 19061.234043 19051.250718 19049.374907 19039.556835 19016.791835 18977.313919 18904.760926 18811.338887 18707.207709 18591.338821 18490.319709 18383.215723 18285.639520 18199.913359 18145.952935 18122.313703 5079.403997 4944.846078 4759.277154 4562.689911 4402.857233 4298.393369 4229.669588 4080.018994 3580.664958 2034.984929 -766.522005 -6648.609915 -16819.234373 -27158.962294 -36605.596738 -43012.091297 -46433.276710 -48067.526405 -47796.363729 -44383.009751 -37101.400613 -28833.342215 -19337.693699 -10509.926113 -4488.291093 -465.284730 1937.186592 3383.091309 4366.405146 5161.822195 5886.791367 6529.212778 7109.253583 7619.242061 8114.377244 8579.336853 9025.190384 9417.586444 9761.238302 10121.670653 10491.037418 10837.783874 11159.018641 11492.331040 11822.240687 12129.951246 12416.119653 12651.625119 12862.269399 13044.043242 13176.236114 13268.382189 13351.631598 13468.010027 13607.006860 13752.154247 13897.995435 14055.959814 14216.020028 14359.946590 14486.088398 14602.559867 14702.688063 14784.776176 14848.012812 14899.010870 14939.001079 14955.905700 14957.006474 14973.847973 15020.420577 15090.894434 15193.466086 15322.799077 15465.950933 15605.485352 15737.669098 15881.847609 16038.778817 16183.646090 16301.781785 16400.639113 16489.455902 16569.748785 16630.752806 16676.354244 16724.882479 16779.266355 16826.651256 16846.598457 16849.129487 16860.124699 16889.218235 16925.098341 16939.781781 16910.479757 16856.465297 16814.594325 16799.157036 16786.928278 16758.788230 16707.258528 16640.686538 16584.810045 16555.476316 16540.469273 16527.349434 16505.883590 16499.563895 16523.166328 16547.844980 16546.530123 16540.027021 16551.677454 16584.258579 16640.112838 16702.226596 16736.065210 16723.953213 16679.646065 16610.396081 16530.444769 16454.446792 16380.672842 16329.606938 16303.970422 16304.391203 16346.941822 16438.570363 16520.011895 16552.541555 16565.664519 16562.224012 16539.346448 16511.986252 16488.683460 16475.394393 16467.839067 16467.504984 16493.960414 16569.229968 16681.710364 16810.242562 16910.844562 16981.642806 17037.880778 17060.627641 17044.931298 17017.912912 16990.290051 16953.891486 16934.398779 16975.284183 17058.726451 17130.351682 17165.353919 17179.087957 17179.107496 17156.850069 17104.817454 17037.847656 17009.250883 17033.809414 17098.260770 17182.782331 17272.067685 17360.261151 17438.823115 17497.311809 17533.422694 17564.111606 17607.766544 17653.501741 17715.415221 17821.498068 17975.260092 18143.761003 18293.637470 18426.977224 18552.440724 18662.431435 18771.320867 18887.810626 18992.623422 19071.631167 19119.616821 19135.400682 19138.137764 19132.969094 19111.991461 19077.232816 19022.763887 18946.807540 18852.922546 18751.798609 18646.465686 18547.884783 18449.385208 18353.522405 18266.219506 18199.697016 18162.946092 18153.752195 5204.397908 5146.788215 5011.256020 4825.338283 4639.271761 4481.475174 4369.598912 4282.139521 4108.845405 3569.059043 2114.923009 -968.955268 -6975.174909 -16139.990205 -26191.027055 -35096.377256 -41501.140355 -45226.444851 -46564.600065 -45907.570231 -42734.698308 -36655.727982 -28350.559882 -19128.419564 -10695.797299 -4448.998045 -452.648977 1932.059324 3380.273345 4378.989435 5189.119937 5907.480088 6551.548669 7128.825140 7653.907237 8145.068818 8609.403836 9044.440657 9441.516000 9808.725807 10170.155116 10531.901969 10880.576196 11214.514407 11545.231351 11869.793760 12176.381041 12454.393426 12697.363193 12908.290495 13083.867416 13219.714649 13324.375235 13422.098741 13536.328757 13666.572949 13808.177955 13957.434546 14112.942008 14268.670258 14414.323475 14544.494316 14659.863880 14757.761557 14836.113578 14898.510262 14947.892533 14983.591972 15003.651911 15013.272072 15030.961334 15072.711277 15143.389224 15244.274625 15370.955848 15510.509073 15651.579393 15792.078872 15936.616515 16084.929396 16224.708379 16345.520392 16447.801752 16535.809716 16611.087023 16671.108879 16719.479336 16765.920390 16811.799789 16849.582810 16871.325812 16882.065592 16894.583928 16915.952931 16939.219991 16947.288148 16928.281265 16891.866549 16859.096357 16837.805942 16818.708731 16789.728143 16744.373647 16687.777302 16636.624772 16600.285975 16576.005944 16558.144188 16544.056454 16540.514014 16551.976515 16567.195701 16575.975452 16581.636092 16598.337394 16631.064567 16674.416602 16718.770089 16744.204903 16735.648847 16695.567023 16631.881040 16556.940287 16482.279701 16415.493295 16367.845251 16346.313138 16355.493516 16400.154646 16474.040902 16539.907986 16573.314834 16584.994892 16578.141543 16556.083399 16527.850736 16501.701393 16483.274247 16477.032217 16487.925536 16528.249729 16604.091615 16708.306747 16822.279626 16921.278831 16995.988218 17046.975248 17068.948205 17062.250129 17038.440770 17010.639382 16988.449103 16988.222674 17025.775191 17091.186733 17155.460319 17198.295913 17217.565022 17214.505425 17187.116571 17140.062983 17092.416285 17071.833723 17092.578057 17149.490706 17229.567927 17319.955448 17409.181684 17486.661698 17545.087732 17586.547658 17621.248646 17658.750471 17705.766377 17775.083845 17879.562870 18018.178894 18172.784194 18323.305828 18462.368053 18590.190851 18708.303944 18821.605491 18931.094895 19028.129938 19102.765901 19149.671814 19171.179177 19175.898410 19166.591298 19142.717854 19103.402722 19045.789402 18969.154435 18877.533554 18777.266803 18673.167076 18570.207543 18470.788551 18376.139929 18292.263844 18227.914674 18186.270396 18170.185940 18168.158159 18122.313703 18042.638738 17916.125311 17755.725936 17529.107614 17266.472542 16975.402188 16598.942270 16153.546245 15683.362049 15177.997139 14610.831084 14027.780457 13471.577626 12965.629247 12480.170746 12049.722617 11659.010117 11516.943357 11498.115088 11703.750598 12195.019666 12840.073988 13475.016595 14059.387073 14586.935089 14768.832812 14679.033793 14224.054837 13487.087641 12623.506447 11637.182582 10576.474195 9496.583629 8447.180884 7465.559440 6574.430807 5783.136075 5090.819578 4490.184722 3970.842067 3521.747134 3132.641136 2794.669461 2500.456755 2243.905631 2019.914117 1824.122408 1652.730913 1502.388913 1370.134256 1253.361507 1149.801001 1057.498354 974.790092 900.275028 832.782978 771.342911 715.152378 663.549492 615.988146 572.016693 531.259969 493.404401 458.185800 425.379486 394.792341 366.256480 339.624245 314.764260 291.558362 269.899205 249.688414 230.835159 213.255058 196.869329 181.604126 167.390026 154.161614 141.857149 130.418286 119.789841 109.919589 100.758082 92.258496 84.376476 77.070010 70.299301 64.026650 58.216351 52.834583 47.849304 43.230139 38.948211 34.975809 31.285476 27.847185 24.619362 21.506578 18.408814 16.755773 18153.752195 18111.740445 18021.405495 17885.808236 17716.129176 17499.787527 17240.835731 16936.719844 16572.239652 16150.927632 15688.748614 15188.636631 14642.769344 14079.818325 13525.251398 13004.455908 12517.173016 12094.599410 11765.384455 11598.963593 11602.469953 11809.061194 12225.791383 12785.450638 13389.625699 13952.565232 14395.038735 14602.352127 14520.284774 14124.888850 13471.183412 12623.201885 11639.472344 10577.615455 9495.806013 8444.725428 7461.994463 6570.347219 5779.006187 5086.950513 4486.729839 3967.840965 3519.171795 3130.434369 2792.770176 2498.812594 2242.476472 2018.670536 1823.042352 1651.796526 1501.584356 1369.444576 1252.772306 1149.298547 1057.069851 974.423934 899.960960 832.512144 771.107807 714.946746 663.368177 615.826944 571.872198 531.129443 493.285646 458.077062 425.279363 394.699713 366.170451 339.544093 314.689401 291.488317 269.833577 249.626869 230.777412 213.200861 196.818462 181.556393 167.345249 154.119629 141.817805 130.381441 119.755363 109.887352 100.727970 92.230396 84.350284 77.045626 70.276630 64.005603 58.196845 52.816542 47.832674 43.214917 38.934558 34.964409 31.278742 27.853318 24.666154 21.707164 19.026645 17.233740 16.491380 18168.158159 18151.829175 18099.849286 18002.373209 17868.876562 17697.464037 17484.208864 17226.583363 16920.580241 16560.624419 16147.949458 15689.280015 15189.221963 14654.131208 14100.896480 13551.592520 13025.817305 12541.553872 12125.225399 11813.750398 11649.137847 11659.959174 11863.676365 12252.102395 12774.923118 13351.708633 13894.547892 14311.140310 14511.190644 14435.929359 14069.897051 13442.733859 12609.835310 11633.053012 10575.239074 9496.219905 8447.076065 7465.530220 6574.423060 5783.134194 5090.819189 4490.184672 3970.842075 3521.747143 3132.641141 2794.669463 2500.456755 2243.905631 2019.914117 1824.122408 1652.730913 1502.388913 1370.134256 1253.361507 1149.801001 1057.498354 974.790092 900.275028 832.782978 771.342911 715.152378 663.549492 615.988146 572.016693 531.259969 493.404401 458.185800 425.379486 394.792341 366.256480 339.624245 314.764260 291.558362 269.899205 249.688414 230.835159 213.255058 196.869329 181.604126 167.390026 154.161614 141.857149 130.418286 119.789841 109.919589 100.758082 92.258496 84.376476 77.070011 70.299302 64.026653 58.216360 52.834610 47.849393 43.230430 38.949163 34.978917 31.295628 27.880365 24.727397 21.867244 19.418385 17.571795 16.621450 16.346364 16.755773 15.646061 13.855653 12.390275 11.128957 10.003231 8.988220 8.070428 7.240274 6.489776 5.811834 5.199986 4.648303 4.151341 3.704101 3.301994 2.940815 2.616710 2.326157 2.065934 1.833105 1.624988 1.439143 1.273350 1.125590 0.994034 0.877019 0.773043 0.680743 0.598890 0.526375 0.462196 0.405452 0.355332 0.311108 0.272124 0.237795 0.207596 0.181056 0.157755 0.137320 0.119415 0.103744 0.090041 0.078072 0.067627 0.058523 0.050595 0.043697 0.037703 0.032499 0.027986 0.024076 0.020692 0.017765 0.015238 0.013057 0.011177 0.009558 0.008165 0.006969 0.005941 0.005060 0.004305 0.003658 0.003105 0.002632 0.002229 0.001884 0.001590 0.001339 0.001125 0.000943 0.000787 0.000653 0.000538 0.000439 0.000352 0.000276 0.000209 0.000148 0.000091 0.000038 -0.000015 -0.000067 -0.000120 -0.000177 -0.000238 -0.000306 -0.000381 -0.000467 -0.000564 -0.000677 -0.000807 -0.000957 -0.001132 -0.001335 -0.001570 -0.001844 -0.002163 -0.002532 -0.002961 -0.003458 -0.004034 -0.004701 -0.005471 -0.006361 -0.007387 -0.008570 -0.009932 -0.011498 -0.013297 -0.015361 -0.017727 -0.020436 -0.023535 -0.027074 -0.031114 -0.035719 -0.040962 -0.046926 -0.053702 -0.061392 -0.070110 -0.079982 -0.091149 -0.103767 -0.118007 -0.134062 -0.152142 -0.172479 -0.195330 -0.220978 -0.249732 -0.281932 -0.317952 -0.358199 -0.403119 -0.453198 -0.508965 -0.570998 -0.639922 -0.716416 -0.801216 -0.895118 -0.998980 -1.113728 -1.240360 -1.379948 -1.533641 -1.702671 -1.888358 -2.092107 -2.315421 -2.559896 -2.827229 -3.119220 -3.437776 -3.784910 -4.162748 -4.573527 -5.019598 -5.503429 -6.027601 -6.594811 -7.207873 -7.869711 -8.583362 -9.351971 -10.178786 -11.067156 -12.020525 -13.042423 -14.136461 -15.306319 -16.555742 -17.888524 -19.308498 -20.819524 -22.425472 -24.130212 -25.937590 -27.851418 -29.875454 -32.013378 -34.268779 -36.645129 -39.145764 -41.773862 -44.532422 -47.424242 -50.451918 -53.617860 -56.924427 -60.374400 -63.972606 -67.731333 -71.688025 -75.984033 -80.847266 -83.703993 16.491380 16.106475 15.090351 13.680168 12.337917 11.109815 9.994268 8.982596 8.066071 7.236533 6.486436 5.808813 5.197242 4.645809 4.149076 3.702045 3.300130 2.939126 2.615182 2.324775 2.064687 1.831979 1.623973 1.438230 1.272528 1.124853 0.993372 0.876426 0.772511 0.680267 0.598465 0.525996 0.461858 0.405151 0.355064 0.310869 0.271912 0.237607 0.207429 0.180908 0.157625 0.137205 0.119313 0.103654 0.089962 0.078002 0.067566 0.058469 0.050548 0.043656 0.037667 0.032468 0.027959 0.024052 0.020671 0.017747 0.015222 0.013043 0.011165 0.009548 0.008157 0.006961 0.005934 0.005054 0.004300 0.003654 0.003101 0.002629 0.002226 0.001882 0.001588 0.001338 0.001124 0.000941 0.000786 0.000652 0.000537 0.000438 0.000352 0.000276 0.000208 0.000147 0.000091 0.000037 -0.000015 -0.000067 -0.000120 -0.000177 -0.000238 -0.000305 -0.000381 -0.000466 -0.000564 -0.000676 -0.000806 -0.000956 -0.001130 -0.001333 -0.001569 -0.001842 -0.002160 -0.002530 -0.002958 -0.003455 -0.004030 -0.004696 -0.005466 -0.006355 -0.007380 -0.008562 -0.009923 -0.011488 -0.013285 -0.015348 -0.017712 -0.020419 -0.023515 -0.027052 -0.031088 -0.035690 -0.040929 -0.046889 -0.053660 -0.061345 -0.070058 -0.079923 -0.091083 -0.103693 -0.117925 -0.133970 -0.152039 -0.172364 -0.195203 -0.220836 -0.249575 -0.281759 -0.317760 -0.357986 -0.402884 -0.452939 -0.508680 -0.570684 -0.639577 -0.716038 -0.800802 -0.894664 -0.998483 -1.113186 -1.239770 -1.379305 -1.532942 -1.701912 -1.887534 -2.091215 -2.314456 -2.558853 -2.826104 -3.118009 -3.436473 -3.783510 -4.161246 -4.571917 -5.017876 -5.501589 -6.025637 -6.592720 -7.205648 -7.867347 -8.580854 -9.349315 -10.175977 -11.064190 -12.017398 -13.039131 -14.133000 -15.302687 -16.551937 -17.884543 -19.304341 -20.815190 -22.420961 -24.125524 -25.932728 -27.846384 -29.870251 -32.008011 -34.263253 -36.639450 -39.139939 -41.767897 -44.526323 -47.418006 -50.445513 -53.611157 -56.916977 -60.364714 -63.955760 -67.690930 -71.568838 -75.568235 -79.551540 -82.352016 -83.459608 16.346364 16.230498 15.746008 14.769480 13.559311 12.300867 11.101533 9.994841 8.985652 8.069642 7.240033 6.489702 5.811812 5.199979 4.648301 4.151341 3.704101 3.301994 2.940815 2.616710 2.326157 2.065934 1.833105 1.624988 1.439143 1.273350 1.125590 0.994034 0.877019 0.773043 0.680743 0.598890 0.526375 0.462196 0.405452 0.355332 0.311108 0.272124 0.237795 0.207596 0.181056 0.157755 0.137320 0.119415 0.103744 0.090041 0.078072 0.067627 0.058523 0.050595 0.043697 0.037703 0.032499 0.027986 0.024076 0.020692 0.017765 0.015238 0.013057 0.011177 0.009558 0.008165 0.006969 0.005941 0.005060 0.004305 0.003658 0.003105 0.002632 0.002229 0.001884 0.001590 0.001339 0.001125 0.000943 0.000787 0.000653 0.000538 0.000439 0.000352 0.000276 0.000209 0.000148 0.000091 0.000038 -0.000015 -0.000067 -0.000120 -0.000177 -0.000238 -0.000306 -0.000381 -0.000467 -0.000564 -0.000677 -0.000807 -0.000957 -0.001132 -0.001335 -0.001570 -0.001844 -0.002163 -0.002532 -0.002961 -0.003458 -0.004034 -0.004701 -0.005471 -0.006361 -0.007387 -0.008570 -0.009932 -0.011498 -0.013297 -0.015361 -0.017727 -0.020436 -0.023535 -0.027074 -0.031114 -0.035719 -0.040962 -0.046926 -0.053702 -0.061392 -0.070110 -0.079982 -0.091149 -0.103767 -0.118007 -0.134062 -0.152142 -0.172479 -0.195330 -0.220978 -0.249732 -0.281932 -0.317952 -0.358199 -0.403119 -0.453198 -0.508965 -0.570998 -0.639922 -0.716416 -0.801216 -0.895118 -0.998980 -1.113728 -1.240360 -1.379948 -1.533641 -1.702671 -1.888358 -2.092107 -2.315421 -2.559896 -2.827229 -3.119220 -3.437776 -3.784910 -4.162748 -4.573527 -5.019598 -5.503429 -6.027601 -6.594811 -7.207873 -7.869711 -8.583362 -9.351971 -10.178786 -11.067156 -12.020525 -13.042423 -14.136461 -15.306319 -16.555742 -17.888524 -19.308498 -20.819524 -22.425472 -24.130212 -25.937590 -27.851418 -29.875454 -32.013378 -34.268779 -36.645128 -39.145763 -41.773857 -44.532405 -47.424187 -50.451738 -53.617272 -56.922509 -60.368155 -63.952267 -67.665071 -71.472769 -75.271301 -78.780848 -81.551944 -82.956203 -83.324925 -83.703993 -87.057793 -93.107335 -98.881264 -104.575046 -110.338408 -116.205220 -122.181375 -128.263794 -134.446307 -140.721393 -147.080714 -153.515260 -160.015396 -166.570880 -173.170895 -179.804100 -186.458731 -193.122754 -199.784097 -206.430959 -213.052225 -219.637946 -226.179871 -232.671941 -239.110606 -245.494786 -251.825177 -258.102607 -264.325110 -270.483514 -276.555623 -282.499635 -288.248221 -293.705838 -298.752970 -303.261868 -307.128195 -310.320860 -312.947079 -315.320672 -318.009622 -321.827845 -327.733748 -336.614403 -348.976128 -364.623504 -382.470713 -400.658115 -417.169953 -431.169484 -432.003276 -392.160531 -354.045297 -319.246542 -308.942978 -314.827594 -334.532571 -353.149078 -362.662647 -375.616210 -380.204290 -375.323254 -364.268773 -350.374759 -322.807831 -291.354881 -265.991132 -238.107294 -220.744441 -219.730818 -237.288370 -269.571852 -279.349911 -286.283928 -253.234962 -229.479817 -241.238448 -296.155147 -365.113393 -426.206953 -472.915541 -515.464496 -571.487979 -560.475744 -459.622655 -317.837766 -35.079106 226.312379 521.169202 949.614337 1297.294741 1729.411321 2175.942544 2576.033140 3097.421729 3592.412203 4050.612930 4410.516813 4632.018375 4811.868558 -83.459608 -84.897388 -88.409603 -93.546465 -98.996678 -104.605679 -110.343901 -116.203328 -122.177447 -128.259481 -134.442131 -140.717535 -147.077246 -153.512225 -160.012826 -166.568803 -173.169336 -179.803079 -186.458261 -193.122838 -199.784723 -206.432098 -213.053824 -219.639927 -226.182134 -232.674366 -239.113075 -245.497208 -251.827533 -258.105010 -264.327873 -270.487221 -276.561174 -282.508225 -288.261204 -293.724424 -298.777699 -303.291866 -307.160291 -310.348804 -312.961261 -315.308936 -317.959751 -321.731912 -327.593590 -336.446071 -348.809235 -364.489569 -382.367615 -400.454387 -416.290163 -427.551877 -430.626794 -412.901992 -376.595521 -344.693692 -331.465872 -332.714329 -343.716878 -357.309635 -369.580600 -377.849340 -379.139713 -373.974178 -361.885025 -343.443689 -318.924113 -292.223997 -266.460121 -243.242026 -225.448639 -221.672398 -234.461903 -257.978151 -277.389362 -282.784579 -271.808781 -261.549519 -274.817006 -316.971362 -372.494641 -430.095661 -480.727099 -520.578751 -555.050113 -545.802519 -450.937333 -307.492782 -57.880795 236.338234 582.573794 961.953868 1257.421937 1674.512624 2175.889073 2646.144629 3149.153882 3656.578421 4133.814519 4477.785536 4707.036162 4929.896828 5079.403997 -83.324925 -83.841420 -85.675706 -89.244075 -93.878175 -99.113356 -104.646514 -110.360341 -116.211955 -122.183442 -128.264429 -134.446502 -140.721453 -147.080733 -153.515266 -160.015398 -166.570881 -173.170895 -179.804100 -186.458731 -193.122754 -199.784097 -206.430959 -213.052225 -219.637946 -226.179871 -232.671941 -239.110606 -245.494786 -251.825177 -258.102607 -264.325110 -270.483514 -276.555623 -282.499635 -288.248221 -293.705838 -298.752969 -303.261866 -307.128191 -310.320851 -312.947058 -315.320621 -318.009485 -321.827441 -327.732433 -336.610000 -348.961018 -364.571886 -382.294237 -400.057157 -415.119384 -424.290821 -423.809553 -409.508335 -382.865010 -357.366300 -343.087343 -341.252125 -348.514349 -359.739107 -370.483753 -377.197458 -378.057068 -372.483616 -360.206604 -341.648771 -318.275229 -292.390135 -267.052722 -245.423533 -231.301064 -228.927350 -238.508371 -254.923481 -269.157342 -273.441828 -270.654669 -270.684937 -286.988794 -324.609482 -376.392602 -432.524870 -483.962499 -523.439523 -542.064770 -517.352478 -426.147640 -274.190529 -40.432652 251.234298 588.520694 949.472117 1277.005677 1695.189880 2184.505477 2679.768711 3184.616513 3682.407184 4134.545929 4491.412362 4760.021778 4990.464436 5143.133137 5204.397908 -382.952860 1631.752768 -1392.229644 -26100.914201 1914.517765 -391.946144 322.853464 1734.104768 -12922.938120 197.625267 1159.682763 -1464.542580 848.875978 2282.433414 3175.475434 1385.894081 2534.887128 4493.557975 4084.007785 4416.861103 -1414.938991 -578.193850 1876.969071 1200.930601 -25132.862180 -1290.631743 -968.975420 -48589.926651 1573.135259 2600.668839 -38.847502 2118.007598 2325.522355 594.198513 -6752.679563 3862.202237 1861.620408 1971.942875 4121.678783 3954.193836 -35188.242559 396.498467 -3945.815768 -16492.535778 1508.419068 1124.808262 -22160.155090 -14755.431750 530.804755 -45373.311110 2249.823777 1898.689125 -42036.308340 2569.393186 3544.655515 4261.205929 2296.042338 3393.503420 4303.016493 3832.927790 -41680.285370 1288.147518 -5600.872313 -6213.550778 2122.062309 -1384.393814 -33148.861103 1673.349334 -23.697632 1797.863213 4251.824635 -13150.010066 -3800.768287 -772.960898 2435.476027 2786.195027 2201.576253 4403.971890 3339.152515 4126.646291 -22330.119211 -39858.534290 -5682.594077 1900.759852 -49295.728950 2576.069035 -48458.179968 -36249.140055 -37014.680676 1458.115749 2032.931189 2507.083346 -1400.061228 1365.379515 -20479.759646 3982.375901 2146.689601 -48131.039496 3888.740308 3862.104046 -30193.118529 3963.149932 -46099.949499 -26246.245016 3786.103968 -4726.246361 7628.425424 -43990.073274 1626.848166 -860.194504 -7816.932385 3178.381201 3202.187838 3594.732602 -45509.461145 3279.851740 1596.392194 1826.327113 3434.452265 2346.886937 -49486.676980 -7368.991721 7901.531868 3690.984950 3903.009046 -671.283834 8976.126650 -1313.515290 -45218.132219 -44335.249596 -5561.252526 -7044.995770 1688.083584 3247.566192 -47441.482076 -45521.004291 -1210.624147 1731.352852 2401.191652 3519.199034 -48985.955698 -30367.802698 -49819.790946 9811.083972 7241.654068 -7637.958240 -45532.846174 6657.651295 4780.325862 -45410.679367 -19996.898981 -9667.850764 -26695.132929 -49441.518869 1404.467752 2059.941604 -47672.842353 -4931.673989 -41026.642304 1529.525573 8979.659993 5366.507524 5816.464582 -45538.307402 -45697.820699 -12675.151686 9102.087536 -49762.775364 3419.804525 3808.125550 -49370.929828 -43869.919201 -6805.520424 -28097.953162 3167.210872 -44133.883324 -2584.330911 2550.753375 3143.922419 3794.286769 -38091.392134 9816.056134 6546.432102 9479.426638 2881.962677 -45054.867275 -47680.759276 -47004.969380 6426.235932 9148.578487 -15794.551705 -25834.824079 8254.265624 -50038.052729 7121.851148 2598.816522 -35029.427417 1135.756588 9702.002201 2666.672586 -22660.438512 3417.480290 2785.952224 9408.042171 7845.847527 7642.185309 -28910.665628 7528.433885 -1988.754899 -49782.563921 8547.203051 8291.371451 2761.684894 10419.258504 10140.079961 -49931.791453 1723.175865 2274.710684 -2701.507394 7204.573673 9165.922894 -38642.178887 -45882.979146 10447.916348 1084.439425 6655.918200 8322.572343 3409.089325 8424.954351 10133.370037 8916.748022 -36926.865796 7792.147043 7206.311926 9486.494923 5900.495334 -47800.955894 -1800.123606 6077.430230 -34952.970355 -49909.239578 10325.446551 5865.644496 713.118517 4185.887097 -50002.488389 9084.039060 9294.423602 6930.054358 7613.993538 7144.314006 10044.870349 7408.674642 8965.834445 9315.761328 8410.859004 -24590.012867 11415.970856 11436.370458 9092.926233 5139.228910 5269.917276 8719.464095 6732.951935 -6563.400488 7785.706211 9728.381802 8031.534587 5977.208944 8289.704306 1912.182590 7123.543188 8855.576829 9318.820110 7000.112125 4362.146247 10088.293557 10693.751646 -15710.279664 -28291.809583 7026.816529 11475.869878 8201.472297 9047.444992 11645.412789 6988.491207 10541.686382 7390.240761 8604.164491 6670.658835 8586.001415 8335.482231 8821.482181 9160.955942 7253.366949 9718.500126 11988.725336 9889.816498 10803.244136 10226.182571 8040.441740 8433.857569 3745.399109 -36092.968740 7625.550149 8483.501735 10439.695720 8229.965267 8238.343143 10523.159681 10947.075613 11905.497379 -45738.476882 7558.537931 6711.068208 8017.521347 9358.252906 4146.787651 8113.188469 11396.107594 8382.193261 9904.864696 12301.884320 9225.871489 8277.599162 -18953.287967 9476.589491 8786.322718 9609.993293 9975.132396 12332.010857 11376.372284 12527.060391 9460.919859 8699.459790 11154.098339 3571.515246 -29228.363543 -49982.740472 -50076.878865 9531.816921 8788.002121 5979.867950 7446.118860 6732.837178 7403.989231 12958.958329 11885.330064 10736.057298 11285.108839 9627.360421 11595.659328 8577.551017 12449.482613 12407.836618 12014.773782 2576.232766 12204.546956 11118.548167 -49450.475607 10046.762717 12943.364836 6604.808415 11708.688650 12536.229476 11499.770196 11839.143444 13317.352830 11316.144907 7702.312064 9859.669891 13747.061691 10778.611841 11762.857602 10394.122539 7314.366713 11753.905773 8622.273026 10650.472123 8939.500347 10638.169125 8504.367836 12478.692326 13546.760324 12035.539197 10387.181442 11113.294956 8871.720511 7905.881675 13206.024686 13855.146502 12526.735849 12639.996321 12264.625515 12232.589920 12150.829774 11275.693916 7530.756819 -48367.041461 -10176.583526 10271.196844 7505.181398 13447.759272 10858.618000 8665.315273 12901.676661 13410.777641 9488.458178 11165.018645 10370.888274 11678.495193 9795.137596 14219.916920 9391.108702 12931.935145 12820.726679 12036.210195 11715.368587 11888.916086 7380.800475 12365.418291 9205.450896 12296.157986 7035.317494 7804.874961 10691.106773 12033.992017 9396.469762 11904.300065 10369.737600 10737.457872 11230.135967 9380.171518 13983.519030 12391.941318 11520.799244 11138.159625 10423.842152 10318.254891 -10795.464686 10477.446852 6972.828877 8965.021667 7380.414045 9352.756561 9078.502668 8096.077714 13170.895727 6032.452005 8670.696361 14091.598320 8496.166199 12443.960867 13791.166309 10984.369626 13577.264781 12764.061548 9712.567121 407.932664 12340.582395 11771.710472 10082.652174 8729.131159 7529.445503 11361.065197 7368.335941 10714.497667 12954.589565 13422.542269 7842.226179 10316.557689 11220.282374 12752.433808 12907.343007 13407.621060 13429.927971 5414.244864 14009.188088 9613.358184 2798.939802 10016.865576 13914.133857 10514.450307 11132.293141 14553.473733 8101.550967 14466.832207 11747.483735 12233.223397 13045.281977 13881.279313 12335.599450 13646.333551 12653.382155 13781.746808 11876.531432 12387.095899 13451.751876 5534.328010 10861.721029 8954.618321 12596.109691 13531.601764 13904.308950 9658.860500 13584.688259 11756.894575 14882.791740 11700.833462 14706.153837 14325.248306 11794.607467 13302.811806 13811.170488 13285.518690 10820.682142 14421.609409 10998.405890 10738.185363 10538.427495 14959.330284 13919.531619 8585.089711 14010.544750 9135.003671 11270.170937 13305.995571 7396.281402 13858.840777 13598.720253 14932.181410 10815.985229 13453.005368 13872.433690 11968.318016 11092.501895 14500.187150 12016.089755 6431.074469 4365.531894 10392.292547 9446.564878 10050.944611 11900.777750 9457.341099 10439.330425 12219.595007 11926.950903 15201.785324 12761.274423 13300.398981 10840.761230 9682.363207 14387.038707 13989.511707 12774.622472 12167.760353 14245.111772 8319.711440 12253.231489 8768.554630 7781.487328 6861.125961 10798.075271 13709.490357 10804.891511 11111.512387 12086.150315 8696.748958 14885.850106 8236.691414 14903.133469 14968.089784 14318.347287 14321.532508 15230.078407 14610.509262 14093.886925 14099.032377 13926.367261 3825.800862 7626.478304 4409.299765 8690.388738 12404.498308 12078.853387 10198.225805 11126.203133 10388.897634 8572.601013 12840.457532 13514.766457 8694.130148 11544.023573 13395.243913 14524.646189 14252.020833 12500.535041 12962.283589 6691.971823 2953.000014 4298.333185 4523.910349 6967.492298 5101.773741 9045.681351 10050.771412 13888.915976 8233.737580 10138.627367 8784.317934 9865.040693 12414.881005 8585.570298 14364.259214 14764.488749 11150.888628 14404.605938 7441.424969 12904.591955 3407.316690 3414.481386 4020.255798 3904.404884 10941.445902 6125.669957 8791.666970 10019.396814 7750.155748 11099.145640 6109.175676 11011.484128 7709.714583 15155.452324 10084.233305 14272.835830 13048.438286 13414.523832 11249.668113 12228.634392 3145.714867 3260.847305 4682.875955 4685.246849 4742.661694 5588.220231 7905.024458 8181.886664 7094.782872 7617.513197 6807.792439 8270.895037 15135.598733 9766.787392 10328.095764 14167.316189 12713.350705 12527.409514 11073.676561 12653.723661 3749.536282 4240.540713 6745.988398 3959.873912 5299.109896 6486.444809 5285.384312 5522.478798 7299.999706 6971.806734 9616.153101 8511.026774 9416.564794 9082.771904 13234.938978 10079.320794 10913.016676 13715.599993 8977.225803 8846.848547 2778.793490 3666.656099 4481.549837 4460.467438 6302.662532 4796.800628 7294.9