<VTKFile type="PolyData">
<PolyData>
<Piece NumberOfPoints="6715" NumberOfVerts="6715" NumberOfLines="0" NumberOfStrips="0" NumberOfPolys="0">
<PointData>
<DataArray type="Float64" Name="Pressure" format="ascii">
 8504.970281 8584.517559 9178.936419 10174.563272 10954.505179 10625.284586 9544.741880 9246.279630 9175.979581 7820.372799 5825.644851 6767.166764 9061.325700 7648.722640 -6162.577706 -25968.357107 -30763.279779 -19568.404285 1840.402655 16491.195526 12538.591663 4001.281408 3667.872001 5116.896966 6111.592418 7328.476587 7748.142235 7954.996083 9300.093377 10838.146514 11116.901188 9885.122586 9584.411106 9752.056642 9921.381825 10295.332286 11183.781231 11495.895506 10936.278883 10556.539316 10585.845306 11646.037576 12993.922316 14669.899473 15523.359543 13900.602311 13419.364587 14096.485265 14954.983724 14925.572675 15071.519406 14977.198858 14110.853542 13153.970688 12978.467382 13370.475547 13961.051933 13823.091335 13429.332116 13489.158267 14153.434775 14709.624303 14350.839536 14031.680900 14346.163887 14545.451290 14563.736698 14376.266338 13724.428681 13478.819210 13322.901463 13453.881815 13929.682307 14303.341586 14448.602215 14433.796761 14375.244654 14345.427840 14033.641359 13778.475551 13809.486565 14254.956128 14608.434875 14634.201003 14402.629599 14137.878113 14407.741835 15300.743629 15790.222411 15337.380924 15056.333314 15412.524345 15977.934327 16667.560038 16949.683397 17002.994423 17349.492546 17413.702141 16650.680354 16572.813397 16489.766357 16549.172974 17173.965447 18314.000950 18648.057457 18504.149655 18726.595838 20093.336952 21369.971239 21074.898977 19453.025646 18426.630312 18653.060493 19301.958022 20077.684759 20472.495609 20603.551519 20859.510108 20942.606737 20875.488233 19969.162482 19292.909182 19152.390864 19346.046475 20207.639844 20511.486980 19885.646882 19346.824352 19938.011889 19779.543091 19591.053557 19065.503470 19552.654219 20675.418255 21352.488908 21701.243042 21535.180082 21596.834971 21624.307392 20880.640808 20598.870312 21255.492951 21291.120043 20758.852089 19975.496956 20067.258237 20377.545051 20063.017021 19701.685658 19559.758867 19360.541689 19110.346297 18870.908833 18636.187690 18346.113275 18135.318070 18132.760026 18167.940036 17827.189628 17421.657226 17343.691458 17549.698685 17668.843461 17548.940458 17390.832959 17219.607525 16974.300358 16822.470375 16924.689547 17372.416165 17548.732481 17360.599510 17399.164714 17054.969349 16711.974270 16590.297171 16324.779698 16094.308305 15965.656642 15919.240437 15900.112578 15784.251041 15758.188015 15629.830420 15466.429486 15142.526441 14810.325587 14599.599528 14666.358075 14781.016232 14597.657443 14179.809997 13500.053874 13279.878446 13548.471316 13701.844419 13719.978080 13396.802193 12709.811182 12121.691612 11530.277093 7727.153231 7962.793732 8110.411162 8646.331787 9710.063021 10291.760725 9991.379208 9502.624509 9181.471947 8915.238407 8423.187017 7418.655635 6333.450073 6728.073751 8962.729338 12030.383244 11222.634258 10498.894258 20711.694332 27202.383708 18689.485275 6880.515760 1933.950141 2560.633143 4502.225116 6628.831894 7857.381488 8175.843601 8536.592070 9448.443865 10125.307298 10129.244560 10007.714986 10011.309650 9893.191060 9925.770906 10309.240941 11047.274100 11404.511382 11190.536411 10888.684629 10850.278114 11322.299034 12211.079859 13356.982512 14153.400599 13767.947020 13663.563555 14663.025603 15193.601872 15078.018480 15098.062144 14806.435587 14125.607618 13987.165333 14117.717523 13762.033266 13441.605718 13461.117835 13597.055910 13771.456069 14172.816009 14403.400081 14292.731695 14205.217978 14278.227471 14519.427846 14600.596640 14361.388121 14083.917838 14071.262325 14257.014167 14326.940002 14412.766417 14717.503877 14756.878120 14667.335971 14794.192118 14797.814397 14553.833548 14278.009108 14287.637991 14406.182921 14536.700942 14821.782790 14943.115567 14902.034051 15064.832370 15568.447701 15870.268386 15585.384964 15472.537734 15824.339479 16396.285127 17129.545659 17440.786256 17415.631626 17572.799833 17812.104262 17629.913831 17217.398674 17067.549550 17051.015546 17420.939888 18300.703672 18759.231844 18834.012210 19168.826208 20060.166637 20962.681973 20892.538417 20026.647089 19568.741801 19666.396850 20062.823411 20482.256329 20615.065968 20716.664116 20939.158799 20876.672118 20562.990124 20218.840941 19790.247065 19694.056018 20020.766457 20350.692717 20608.979927 20412.128778 19456.793628 19037.122059 19360.239019 19831.826415 20149.505848 20623.934820 20871.664413 20943.124959 21047.005806 21321.139856 21509.645433 21450.651968 21265.649589 21147.679734 21322.153216 21349.801387 20998.979706 20519.045185 20522.235539 20522.046634 20119.557115 19816.381013 19636.521214 19418.496321 19217.866605 18974.175966 18699.111954 18509.184659 18340.034256 18142.730254 17959.091944 17758.973433 17495.129195 17374.719254 17440.167839 17509.261151 17491.662805 17394.298917 17321.710982 17178.466678 17041.561694 17111.813082 17346.124066 17606.313912 17615.978624 17288.908314 16879.882181 16679.338184 16507.559393 16255.873145 16026.223138 15925.873014 15883.496028 15746.852238 15617.382373 15603.110334 15553.944735 15366.128438 15083.727159 14791.321292 14542.033803 14444.479365 14491.472487 14341.486298 13788.631849 13238.652519 13115.065639 13297.762264 13427.312044 13270.343843 12735.360061 12154.121692 11646.379595 11232.611585 10971.715842 7421.956718 7540.622797 7790.123535 8097.944076 8534.400674 9100.381308 9432.840646 9330.098685 9054.545393 8760.852520 8511.925267 8189.675596 7565.785293 6772.198645 7027.388728 9790.097440 15361.502236 21165.433007 25273.380141 25608.948282 20795.381839 12689.789736 5816.412404 2775.556421 2752.985967 4354.794908 6207.736344 7429.721886 8050.383566 8565.121605 9231.762892 9684.376290 9814.827859 9939.510627 9953.216270 9900.721896 9993.872297 10278.376326 10679.197813 10946.948174 11008.143844 11061.540467 11277.791660 11746.899637 12463.786637 13248.985478 13872.465023 14168.372025 14386.358399 14780.693456 14954.966338 14896.579674 14781.052543 14561.807168 14308.603487 14223.068809 14163.560796 13977.443091 13801.461456 13764.601890 13739.571552 13744.181399 13842.320997 13928.581783 13979.226528 14052.977844 14175.798985 14350.351198 14450.126602 14399.592068 14323.124850 14338.563133 14442.797142 14511.817334 14602.146783 14743.724123 14767.786130 14724.077599 14719.137108 14701.561103 14625.203249 14564.059233 14599.849835 14674.724058 14743.735610 14863.930263 15011.879783 15154.038549 15358.487510 15627.929770 15815.558220 15873.325701 15975.169251 16232.496970 16645.473685 17128.557067 17465.762283 17616.125358 17741.696039 17843.113668 17825.563298 17685.834185 17644.620623 17726.474775 17936.825828 18360.915065 18792.306524 19137.187296 19556.884723 20062.792435 20480.980374 20577.702944 20416.166399 20247.813370 20230.375021 20322.910020 20405.209263 20435.385277 20502.175694 20603.830442 20571.060119 20392.485704 20243.817808 20155.369708 20191.212357 20384.266890 20634.623973 20875.207831 21003.407798 20833.067596 20486.147822 20631.260643 20813.973892 20783.639865 20832.521961 20948.891553 21040.359055 21154.447865 21351.483933 21474.021819 21453.115436 21364.161099 21297.624319 21300.988449 21260.177653 21055.079334 20820.767726 20668.541570 20488.564773 20203.820113 19937.339545 19694.419282 19454.148562 19228.890911 19004.761375 18782.658208 18574.645966 18361.120248 18134.801176 17950.265977 17810.068974 17647.987710 17532.002609 17472.657520 17429.255571 17403.259979 17376.402563 17347.305407 17301.784589 17247.289776 17283.697977 17389.186221 17465.933465 17405.703794 17129.359488 16824.533039 16595.349128 16382.573786 16174.403409 15995.523989 15876.566104 15781.113612 15661.515701 15548.787490 15450.716769 15312.099769 15098.050328 14861.391907 14629.444561 14435.205823 14321.349595 14260.547288 14103.641972 13767.911149 13433.550516 13254.176841 13168.513784 13054.325296 12788.272573 12381.703624 11946.451151 11521.595761 11139.216294 10884.919665 10785.295710 11530.277093 12122.442678 12464.133503 12285.149310 11786.308598 11156.439692 10472.609426 9861.568036 9194.711156 8290.372606 7547.109064 6960.421224 6317.176973 5595.757350 5095.400711 4807.935809 4252.793027 3687.696021 3220.317495 2791.729369 2697.398405 2701.972060 2694.893977 2690.510271 2675.470607 2657.570305 2626.412215 2579.541116 2517.167503 2440.654823 2352.020695 2253.594484 2147.785129 2036.930889 1923.210887 1808.587668 1694.768282 1583.182749 1474.979676 1371.036594 1271.981214 1178.219703 1089.968657 1007.288192 930.114187 858.288300 791.584782 729.733562 672.439370 619.396962 570.302698 524.862879 482.799317 443.852643 407.783845 374.374482 343.425968 314.758251 288.208148 263.627529 240.881501 219.846682 200.409637 182.465491 165.916752 150.672318 136.646675 123.759243 111.933878 101.098473 91.184660 82.127588 73.865747 66.340840 59.497678 53.284089 47.650847 42.551586 37.942734 33.783428 30.035430 26.663038 23.632991 20.914366 18.478473 16.298750 14.350646 12.611512 11.060489 9.678389 8.447592 7.351927 6.376566 5.507908 4.733439 4.041506 3.420804 2.858911 2.335560 1.831723 1.569209 10971.715842 11166.382490 11457.249212 11620.535629 11427.565218 11033.593059 10535.510376 9923.067015 9303.173729 8643.456924 7926.178989 7253.372565 6629.589613 6015.808590 5427.170124 4923.165042 4485.019315 4024.849455 3574.992261 3200.963353 2922.829678 2778.324294 2724.176456 2701.450370 2686.607265 2675.809692 2658.410167 2627.218303 2580.282338 2517.826170 2441.217818 2352.476417 2253.940157 2148.024330 2037.070804 1923.261201 1808.559862 1694.674863 1583.036461 1474.792821 1370.820531 1271.746037 1177.974069 1089.719730 1007.041674 929.874416 858.058390 791.366794 729.528680 672.248082 619.219225 570.138085 524.710708 482.658752 443.722778 407.663762 374.263294 343.322848 314.662447 288.118989 263.544424 240.803938 219.774220 200.341894 182.402141 165.857511 150.616939 136.594938 123.710952 111.888853 101.056546 91.145676 82.091396 73.832203 66.309804 59.469014 53.257665 47.626531 42.529254 37.922262 33.764697 30.018324 26.647447 23.618809 20.901490 18.466807 16.288202 14.341130 12.602947 11.052797 9.671501 8.441441 7.346456 6.371729 5.503688 4.729901 4.038986 3.420528 2.865129 2.365848 1.925669 1.635898 1.515707 10785.295710 10854.083135 10993.360760 11134.808946 11172.256822 11018.209609 10694.649734 10243.041694 9692.588997 9086.282042 8446.451576 7791.277478 7147.669351 6528.859954 5939.949410 5388.519457 4881.835153 4411.479594 3968.609206 3561.790933 3222.802839 2970.179029 2813.981872 2734.426338 2699.057129 2685.281442 2675.625816 2657.933135 2626.555793 2579.584840 2517.174797 2440.656418 2352.021656 2253.594998 2147.785354 2036.930975 1923.210915 1808.587677 1694.768284 1583.182750 1474.979676 1371.036594 1271.981214 1178.219703 1089.968657 1007.288192 930.114187 858.288300 791.584782 729.733562 672.439370 619.396962 570.302698 524.862879 482.799317 443.852643 407.783845 374.374482 343.425968 314.758251 288.208148 263.627529 240.881501 219.846682 200.409637 182.465491 165.916752 150.672318 136.646675 123.759243 111.933878 101.098473 91.184660 82.127588 73.865747 66.340840 59.497678 53.284089 47.650847 42.551586 37.942734 33.783428 30.035430 26.663038 23.632991 20.914366 18.478473 16.298750 14.350646 12.611513 11.060489 9.678391 8.447596 7.351940 6.376610 5.508052 4.733910 4.043050 3.425871 2.875468 2.391130 1.986267 1.685744 1.531580 1.486500 1.569209 1.417691 1.182805 1.001879 0.854577 0.729822 0.622948 0.531111 0.452192 0.384442 0.326359 0.276639 0.234142 0.197877 0.166977 0.140691 0.118365 0.099431 0.083400 0.069847 0.058408 0.048769 0.040658 0.033844 0.028130 0.023344 0.019343 0.016002 0.013219 0.010902 0.008978 0.007381 0.006059 0.004966 0.004064 0.003320 0.002709 0.002206 0.001794 0.001456 0.001180 0.000955 0.000772 0.000622 0.000501 0.000403 0.000323 0.000259 0.000207 0.000166 0.000132 0.000105 0.000083 0.000066 0.000052 0.000041 0.000033 0.000026 0.000020 0.000016 0.000012 0.000010 0.000008 0.000006 0.000005 0.000004 0.000003 0.000002 0.000002 0.000001 0.000001 0.000001 0.000001 0.000000 0.000000 0.000000 0.000000 0.000000 0.000000 0.000000 0.000000 0.000000 -0.000000 -0.000000 -0.000000 -0.000000 -0.000000 -0.000000 -0.000000 -0.000000 -0.000000 -0.000001 -0.000001 -0.000001 -0.000001 -0.000001 -0.000002 -0.000002 -0.000003 -0.000004 -0.000005 -0.000006 -0.000008 -0.000010 -0.000013 -0.000017 -0.000021 -0.000027 -0.000033 -0.000042 -0.000053 -0.000066 -0.000083 -0.000103 -0.000129 -0.000160 -0.000199 -0.000247 -0.000305 -0.000378 -0.000466 -0.000574 -0.000707 -0.000868 -0.001065 -0.001304 -0.001594 -0.001946 -0.002371 -0.002884 -0.003503 -0.004248 -0.005144 -0.006217 -0.007503 -0.009040 -0.010875 -0.013061 -0.015660 -0.018747 -0.022406 -0.026736 -0.031851 -0.037883 -0.044985 -0.053333 -0.063127 -0.074599 -0.088013 -0.103672 -0.121920 -0.143147 -0.167799 -0.196378 -0.229453 -0.267666 -0.311738 -0.362479 -0.420797 -0.487708 -0.564344 -0.651967 -0.751975 -0.865921 -0.995521 -1.142664 -1.309435 -1.498117 -1.711213 -1.951458 -2.221829 -2.525566 -2.866179 -3.247464 -3.673515 -4.148735 -4.677846 -5.265900 -5.918280 -6.640715 -7.439272 -8.320364 -9.290745 -10.357502 -11.528048 -12.810109 -14.211704 -15.741124 -17.406908 -19.217810 -21.182767 -23.310871 -25.611367 -28.093746 -30.768177 -33.647024 -36.750062 -40.121620 -43.906021 -48.348748 -51.025992 1.515707 1.467887 1.336543 1.157522 0.994214 0.851713 0.728456 0.622096 0.530473 0.451669 0.383998 0.325978 0.276310 0.233859 0.197633 0.166768 0.140511 0.118211 0.099299 0.083287 0.069751 0.058327 0.048699 0.040599 0.033795 0.028087 0.023308 0.019313 0.015977 0.013197 0.010884 0.008963 0.007369 0.006049 0.004958 0.004057 0.003314 0.002704 0.002202 0.001790 0.001453 0.001178 0.000953 0.000770 0.000621 0.000500 0.000402 0.000323 0.000259 0.000207 0.000165 0.000132 0.000105 0.000083 0.000066 0.000052 0.000041 0.000033 0.000026 0.000020 0.000016 0.000012 0.000010 0.000008 0.000006 0.000005 0.000004 0.000003 0.000002 0.000002 0.000001 0.000001 0.000001 0.000001 0.000000 0.000000 0.000000 0.000000 0.000000 0.000000 0.000000 0.000000 0.000000 -0.000000 -0.000000 -0.000000 -0.000000 -0.000000 -0.000000 -0.000000 -0.000000 -0.000000 -0.000001 -0.000001 -0.000001 -0.000001 -0.000001 -0.000002 -0.000002 -0.000003 -0.000004 -0.000005 -0.000006 -0.000008 -0.000010 -0.000013 -0.000017 -0.000021 -0.000027 -0.000033 -0.000042 -0.000053 -0.000066 -0.000082 -0.000103 -0.000128 -0.000160 -0.000198 -0.000246 -0.000305 -0.000377 -0.000465 -0.000573 -0.000706 -0.000867 -0.001063 -0.001302 -0.001591 -0.001942 -0.002367 -0.002880 -0.003498 -0.004242 -0.005136 -0.006208 -0.007492 -0.009027 -0.010859 -0.013042 -0.015638 -0.018721 -0.022375 -0.026700 -0.031809 -0.037835 -0.044929 -0.053267 -0.063051 -0.074511 -0.087911 -0.103554 -0.121784 -0.142991 -0.167620 -0.196174 -0.229220 -0.267400 -0.311434 -0.362134 -0.420406 -0.487266 -0.563844 -0.651403 -0.751341 -0.865209 -0.994722 -1.141771 -1.308437 -1.497005 -1.709977 -1.950085 -2.220309 -2.523886 -2.864326 -3.245424 -3.671274 -4.146279 -4.675160 -5.262967 -5.915086 -6.637244 -7.435508 -8.316292 -9.286349 -10.352767 -11.522961 -12.804655 -14.205870 -15.734900 -17.400282 -19.210770 -21.175294 -23.302918 -25.602796 -28.084114 -30.756028 -33.627584 -36.707437 -40.002246 -43.499802 -47.074970 -49.619552 -50.607564 1.486500 1.473509 1.413714 1.290613 1.140463 0.989136 0.850685 0.728636 0.622586 0.531001 0.452159 0.384432 0.326356 0.276638 0.234142 0.197877 0.166977 0.140691 0.118365 0.099431 0.083400 0.069847 0.058408 0.048769 0.040658 0.033844 0.028130 0.023344 0.019343 0.016002 0.013219 0.010902 0.008978 0.007381 0.006059 0.004966 0.004064 0.003320 0.002709 0.002206 0.001794 0.001456 0.001180 0.000955 0.000772 0.000622 0.000501 0.000403 0.000323 0.000259 0.000207 0.000166 0.000132 0.000105 0.000083 0.000066 0.000052 0.000041 0.000033 0.000026 0.000020 0.000016 0.000012 0.000010 0.000008 0.000006 0.000005 0.000004 0.000003 0.000002 0.000002 0.000001 0.000001 0.000001 0.000001 0.000000 0.000000 0.000000 0.000000 0.000000 0.000000 0.000000 0.000000 0.000000 -0.000000 -0.000000 -0.000000 -0.000000 -0.000000 -0.000000 -0.000000 -0.000000 -0.000000 -0.000001 -0.000001 -0.000001 -0.000001 -0.000001 -0.000002 -0.000002 -0.000003 -0.000004 -0.000005 -0.000006 -0.000008 -0.000010 -0.000013 -0.000017 -0.000021 -0.000027 -0.000033 -0.000042 -0.000053 -0.000066 -0.000083 -0.000103 -0.000129 -0.000160 -0.000199 -0.000247 -0.000305 -0.000378 -0.000466 -0.000574 -0.000707 -0.000868 -0.001065 -0.001304 -0.001594 -0.001946 -0.002371 -0.002884 -0.003503 -0.004248 -0.005144 -0.006217 -0.007503 -0.009040 -0.010875 -0.013061 -0.015660 -0.018747 -0.022406 -0.026736 -0.031851 -0.037883 -0.044985 -0.053333 -0.063127 -0.074599 -0.088013 -0.103672 -0.121920 -0.143147 -0.167799 -0.196378 -0.229453 -0.267666 -0.311738 -0.362479 -0.420797 -0.487708 -0.564344 -0.651967 -0.751975 -0.865921 -0.995521 -1.142664 -1.309435 -1.498117 -1.711213 -1.951458 -2.221829 -2.525566 -2.866179 -3.247464 -3.673515 -4.148735 -4.677846 -5.265900 -5.918280 -6.640715 -7.439272 -8.320364 -9.290745 -10.357502 -11.528048 -12.810109 -14.211703 -15.741122 -17.406903 -19.217794 -21.182714 -23.310696 -25.610798 -28.091893 -30.762136 -33.627335 -36.685874 -39.912924 -43.215313 -46.328006 -48.813143 -50.061823 -50.377027 -51.025992 -54.554936 -61.031749 -67.352246 -73.707459 -80.257469 -87.042009 -94.071513 -101.346499 -108.863512 -116.616852 -124.599050 -132.800974 -141.211821 -149.819090 -158.608552 -167.564234 -176.668406 -185.901592 -195.242585 -204.668483 -214.154745 -223.675250 -233.202400 -242.707220 -252.159499 -261.527948 -270.780386 -279.883947 -288.805311 -297.510950 -305.967394 -314.141531 -322.000967 -329.514539 -336.653171 -343.391415 -349.710384 -355.603290 -361.085440 -366.210342 -371.090962 -375.917776 -380.957145 -386.519121 -392.910614 -400.301099 -408.664935 -416.538250 -419.134152 -419.902120 -424.141014 -416.960863 -385.013609 -202.611293 -276.326716 -406.849440 -457.679708 -416.580218 -389.935516 -335.740585 -250.800513 -229.036855 -430.197968 -642.421408 -522.874308 -199.393961 -307.411291 -29.414742 -178.257198 -177.862566 -457.510026 -990.361388 -1015.140190 -1554.758213 -1392.803217 -1609.056744 -2597.071878 -3278.113539 -2553.629219 -1578.571478 -92.888675 469.325064 903.407138 508.942792 1548.666058 3238.569367 4062.916254 3276.763118 2282.849673 3444.121791 4303.101441 5826.502370 7202.330103 7745.659331 7978.356819 8561.975867 9948.598655 10564.008692 9712.256302 8504.970281 -50.607564 -52.160955 -55.924993 -61.477998 -67.465069 -73.733165 -80.257198 -87.033978 -94.061232 -101.335690 -108.852750 -116.606363 -124.588955 -132.791362 -141.202775 -149.810689 -158.600877 -167.557365 -176.662424 -185.896576 -195.238613 -204.665631 -214.153084 -223.674850 -233.203324 -242.709524 -252.163234 -261.533156 -270.787098 -279.892186 -288.815085 -297.522258 -305.980221 -314.155846 -322.016716 -329.531634 -336.671459 -343.410621 -349.729996 -355.622366 -361.102301 -366.222281 -371.094273 -375.908737 -380.933355 -386.478350 -392.849181 -400.250141 -408.623336 -417.086781 -422.166783 -421.299061 -423.429584 -430.826372 -434.952965 -398.595366 -395.615110 -495.236146 -554.819521 -476.830940 -396.328246 -354.747497 -338.994489 -331.774106 -424.978458 -622.807933 -724.071783 -490.559201 -294.967986 -304.628742 -258.066762 -282.676228 -473.162824 -792.371800 -1080.377601 -1201.785869 -1368.520082 -1828.946836 -2389.554768 -2339.509045 -1751.096050 -1424.320062 -926.257226 -36.606717 527.630382 813.076675 1795.878641 3439.999344 4357.294651 3454.403818 2846.565389 3429.354861 4276.972760 5569.790107 7094.192487 8057.966433 8360.582084 8589.441017 9387.781694 9948.809299 9231.618885 8241.556461 7727.153231 -50.377027 -50.945187 -52.930255 -56.781424 -61.822241 -67.589878 -73.780603 -80.279902 -87.048893 -94.073626 -101.347147 -108.863711 -116.616913 -124.599069 -132.800980 -141.211823 -149.819091 -158.608553 -167.564234 -176.668406 -185.901592 -195.242585 -204.668483 -214.154745 -223.675250 -233.202400 -242.707220 -252.159499 -261.527948 -270.780386 -279.883947 -288.805311 -297.510950 -305.967394 -314.141531 -322.000967 -329.514539 -336.653171 -343.391414 -349.710380 -355.603279 -361.085419 -366.210327 -371.091025 -375.918180 -380.957326 -386.513489 -392.888026 -400.291003 -408.634135 -417.274349 -423.945704 -425.357956 -423.414940 -423.616014 -425.529200 -427.580032 -442.134575 -486.415900 -499.957651 -465.143013 -415.816417 -377.411749 -363.208612 -382.673192 -443.315113 -526.233698 -555.275252 -479.373636 -387.273079 -380.161517 -399.268221 -475.917861 -605.270718 -756.365602 -877.572286 -902.508639 -990.592366 -1228.903159 -1488.078927 -1490.334246 -1296.705837 -1079.275402 -775.907313 -301.130737 181.786565 757.348864 1574.197526 2449.215140 2870.548500 2826.828002 3035.845118 3619.312126 4415.727669 5461.284558 6544.047266 7370.145184 7851.032151 8164.413693 8504.542705 8743.125534 8485.177524 7954.319114 7566.622408 7421.956718 6571.940134 2522.411817 3067.647302 931.092951 3268.959297 2442.462464 3503.927456 1325.349086 1556.487185 2540.764718 3968.146751 1360.731223 5494.301941 6420.652992 6186.949806 3465.354111 5905.034881 10508.841399 8722.543719 9510.371795 1999.953781 674.278765 1469.049681 3090.623372 1770.963258 5058.937150 311.364728 3650.864812 3406.692094 4845.560863 4301.314883 3650.503834 3691.665733 1355.159608 4574.398497 8571.388212 5314.895385 4757.491101 10567.636549 10140.722150 5421.794401 2783.113659 388.947706 1645.468828 4487.658002 5326.493075 -15565.740286 3244.490908 4258.054988 5048.323594 2468.066746 4296.475275 8367.578653 7131.691646 3849.098753 10092.150137 8812.110834 7400.685356 9865.741578 7399.109969 5117.176039 6364.788974 7066.503984 3711.762214 5288.775346 3157.623352 4121.455329 2478.373938 2514.970766 5610.636384 9936.537096 737.184011 2032.155923 1119.771417 5402.987198 6418.775195 7064.297658 9817.694938 8843.717686 11057.120490 -24859.646045 7595.072093 11685.692187 5794.529829 5153.314399 7853.789139 -15500.860168 16398.431024 5842.694327 2551.660772 6010.259132 4890.000756 9743.292765 4697.898440 4942.202950 9503.777886 3679.749373 9013.589741 11025.495729 9486.298885 5187.886734 9081.608188 12820.064544 3156.100313 5736.160144 5650.958732 7923.755356 -18648.641497 4236.871194 7016.603435 8440.709911 6758.065726 6965.283633 4869.464156 5094.547853 7207.128171 3315.248260 3946.440642 8808.908840 6458.545970 6792.515752 3463.622116 5998.576263 6657.731688 8295.695219 14609.136725 8787.703741 6097.536873 4255.663777 -37337.609326 731.337987 4897.461545 5326.905357 8946.150602 -39017.184327 -35017.779890 6656.344392 5283.079493 4333.044820 8998.446975 -40212.315939 10592.592366 -1716.095438 7179.505510 6262.517088 7780.309017 13275.542630 10539.179442 8460.003342 -21002.390715 2736.191278 4823.470632 4610.136737 -6254.174815 1014.813148 6370.832423 -1723.808264 3235.788237 10139.590498 6678.530351 6792.298008 7525.122019 7670.401170 -23675.739412 -38415.112000 11077.379998 7908.997273 -38314.455162 5151.590882 3426.520502 -28027.237970 4801.065999 5803.389873 10813.509615 6829.918605 -7484.989736 3836.144844 5254.166662 5152.887255 9786.669207 15848.848817 7095.815853 5393.810145 11006.316437 5097.002220 -37065.626560 -40982.365468 9400.365725 7182.043976 9199.130081 -39012.681540 5413.870578 8505.732389 -30748.356221 6493.515496 6988.994209 14154.252187 5745.024382 8510.356428 5176.856702 5011.258606 6630.300931 7021.936548 6513.528878 5524.115818 5881.105921 6357.560554 7111.380891 12270.637508 -29161.049098 9183.432295 8530.630756 6956.006734 12246.328862 7639.664703 -37647.972134 6234.132197 6593.283542 4889.020160 8338.696330 8231.602096 -37509.711282 -33906.799732 8980.013547 7689.201972 5353.100302 7972.663149 5958.171606 8253.689128 9080.986110 10088.192076 -39603.780508 6408.751669 6593.833639 7383.032163 8011.105700 -9349.558307 4559.829439 10765.078175 16123.705574 -36158.807381 12104.620016 5829.086827 5023.334822 5005.642289 14544.943712 9604.626860 8921.542290 9135.798777 7326.040352 6272.018706 7716.510857 6219.222662 6614.173364 8299.973106 7129.194679 15095.126884 11929.099192 12868.356160 9353.351312 6809.921145 6606.770766 8428.163573 8851.705376 4225.974379 7850.122437 10111.789909 7411.279180 8164.866107 9247.252172 6078.005770 9056.750618 10191.774215 10703.935450 8553.063017 7040.079980 9251.596459 10332.611322 8989.628922 9870.350238 6681.788492 8878.753100 6692.310891 8557.456157 9751.341282 5205.412434 11679.743785 6341.010467 8223.113873 5792.178339 6893.694815 8197.436669 6499.225524 9020.499090 6745.467731 8686.878979 12453.117620 9457.313175 9835.467245 13326.353223 6079.786744 8109.635938 6238.876575 -38516.202827 6737.412024 6981.467542 9394.327204 7244.973066 6904.343485 7543.347927 9600.035879 9965.594145 10681.982315 6835.257509 6950.565490 8054.415741 9800.387148 6975.278979 7012.705851 14077.559547 5819.233363 9757.554252 13348.882850 8688.684470 7558.924021 3593.353949 7589.875175 7977.923920 10821.133812 8915.596069 12565.428029 10577.672022 12299.046253 9217.170288 8910.728903 13277.623217 6800.007162 12500.388788 -34605.003987 -7345.176948 7095.748568 9789.940660 4831.187676 5513.218622 5605.768721 6031.781468 13686.093732 12578.267025 12708.194664 8661.137904 6617.134382 11443.722908 6660.811847 14055.864142 10058.352692 12535.034601 6442.165634 13081.197659 9823.547130 -10545.538867 9979.122363 12724.657925 7907.153879 12738.425363 11730.425559 15312.848247 15256.576320 12703.116387 10399.238947 5833.530450 6225.505176 12876.299723 9880.148272 13332.356266 9316.915395 9536.769313 12735.801947 9730.922710 11366.214569 7836.703866 9498.363129 7389.536096 11672.493128 10691.721766 9224.002230 7576.541679 9240.992030 6408.633746 6424.424681 9281.128376 14874.056184 10608.078808 9581.148908 11472.354627 12716.643217 9808.953623 9034.817320 7481.194108 -2941.770325 4535.848553 7477.103921 5752.378710 10915.416773 9254.974819 6285.821376 10335.027916 11914.419782 6724.114468 7755.672090 8372.572209 11392.656046 6586.598277 10014.253908 8888.258466 11310.812931 10145.745929 16209.776546 14268.177019 9232.770922 7462.902965 11383.550174 6934.731128 10423.003678 4745.339015 5711.639581 8201.477534 8984.517151 8474.184383 9124.941285 6847.131625 9158.136643 11263.021183 7166.345651 12352.135278 10483.079932 14511.511374 13819.946460 9814.135003 9142.317358 4326.815330 8291.846510 5851.235291 5708.542747 5062.655637 7169.643383 5759.516314 5386.409002 9350.168587 5162.038335 6005.400302 12505.310186 6912.285539 8679.011929 12276.182439 10599.144680 11036.482012 14137.794009 12519.001116 5486.792618 13746.827473 8800.867463 6714.565734 6830.159160 4747.947002 6833.505731 5101.572127 8464.668437 10674.090462 11896.733663 6595.388877 7896.860098 7031.569608 15042.835481 10407.771813 11144.020196 12467.998788 10323.981652 12556.592801 9963.056812 5993.903997 7600.148099 12536.482371 6419.655951 7583.017378 11060.118821 6527.471312 11136.345453 7743.319309 9302.173873 10001.869121 10151.554654 9582.078756 11250.211105 13916.988128 12696.603180 14493.735942 12160.007977 12531.880403 10648.836252 13567.245223 6390.388707 9491.410738 9945.310747 10623.655623 7902.008868 10376.371665 8219.690782 11315.606568 8199.272842 11368.290868 11216.434491 9664.785560 13079.008094 11764.759424 10562.267452 8539.009380 12216.223418 9113.178536 9919.540879 11447.923989 13116.685062 11118.390958 7247.433601 9907.847460 5486.828133 8932.722285 9233.492017 5853.939592 9858.628739 13158.493274 10985.552393 8987.342657 10965.722424 12098.527128 8667.787842 13267.770811 13290.308958 10903.684175 10726.704849 7656.130943 6157.703884 4745.099889 7647.868267 6297.790872 5144.015192 5420.611652 8352.638306 8931.574790 11107.774615 10559.080260 11428.993859 8775.018961 8161.517691 11375.539895 12259.933063 14237.198320 12988.189886 12456.242877 9531.008383 10470.775657 4146.528729 4162.324419 3064.314086 8306.044261 9160.642486 7854.071408 7976.857968 7882.728772 4703.736278 11990.208976 6878.745817 11174.088889 11653.525623 12515.814326 11991.283883 11842.089911 12142.226441 12296.555476 12296.463792 12018.394153 982.872829 4324.426316 1890.427557 4559.421501 8589.326556 9064.885702 6109.771794 8110.311915 6125.083789 7120.257452 8874.266783 10595.680815 6592.771877 11224.114225 12530.779212 13434.803114 11484.530397 11759.472010 13589.351183 8954.146763 1957.263562 1309.236778 2043.476590 3544.102009 1402.955801 4592.407558 7019.112596 10308.832957 4846.751462 7765.957645 6183.603605 5977.198001 8664.225644 7758.610049 11303.167166 12510.955384 8691.856236 12445.175661 9370.116752 14404.156944 1913.565208 3470.909013 -224.997625 52.804739 7400.094158 2554.888719 6103.307381 5104.584552 5422.111797 6485.426501 4762.481629 6649.294964 6437.406020 11256.513541 8192.934629 13338.867146 9627.085388 12798.525132 8902.871060 13745.120963 1861.445739 2204.244656 1954.271762 1484.756944 1710.358434 3725.277560 3662.412667 6172.449420 4884.101431 5955.711428 4188.589836 6722.311931 12997.001520 6702.737827 7795.968417 11113.116652 9724.224731 8575.267762 12052.819417 8942.550042 1447.813737 1221.289769 1982.939581 422.114710 1322.640766 4234.562992 2885.685576 4029.607102 5445.259986 3326.362363 7449.500537 6595.351279 5839.589148 6111.717101 9357.239339 8651.030960 9045.437014 12433.960677 10476.379970 9900.615164 2320.326580 754.326007 1100.703832 602.370576 2568.479225 2731.547266 3646.718976 5551.870578 5742.140128 5668.438343 6847.421765 7894.155137 7173.857194 9960.713190 10376.038615 13798.567484 13691.714181 13479.744509 8891.660560 9214.867177 -1074.131469 2588.460280 1604.254710 1887.955983 1211.606842 1102.629689 1505.801869 3070.977935 2694.777042 3330.909566 7986.192883 5886.247991 8445.570365 6199.370027 7346.192683 10938.193053 15496.280568 12946.568557 11400.055785 11206.570030 1956.012438 2006.547048 494.862440 542.994677 1757.504762 2747.