<VTKFile type="PolyData">
<PolyData>
<Piece NumberOfPoints="6715" NumberOfVerts="6715" NumberOfLines="0" NumberOfStrips="0" NumberOfPolys="0">
<PointData>
<DataArray type="Float64" Name="Pressure" format="ascii">
 12879.999950 10238.917355 7621.182667 6930.310211 7010.892627 6525.206224 5962.834140 6465.612248 6940.988344 5602.430781 4728.105158 3769.068537 3310.431990 -2372.732663 -5285.230396 14306.946889 38463.200468 16416.780958 -693.088258 -11521.126250 -8085.432701 -147.191735 4881.242167 5224.885097 4326.437383 5612.268263 8048.405907 7738.586648 7806.149013 7535.435631 7090.729211 6332.364908 5863.910149 7677.287416 10440.431527 12510.665442 12280.544112 12171.320747 13048.285308 14131.579334 14636.455726 14461.131002 14335.996173 14220.854007 14280.592702 15270.192161 15925.244677 16057.051585 15859.334800 15859.450444 15599.550986 15372.559661 15577.778177 16098.560727 16383.400836 16427.498544 16043.066577 15866.248591 16034.874097 16576.631964 17169.107036 17290.620870 17080.081595 16843.209724 16728.496430 16925.458804 17570.107639 17733.736661 17406.389104 17363.219529 17296.887760 17486.163374 17678.155630 18034.384704 18220.637089 18647.278092 19352.449227 19811.600383 20687.506739 21518.635243 21903.719909 22100.486040 21787.800223 21258.686635 20790.078651 20649.746577 21304.171498 22250.126225 22612.898541 23046.877757 22909.978547 22030.288571 21296.154062 21159.871179 21397.193017 21362.161243 21049.737037 21306.898755 21780.053174 21270.619845 20189.928755 19330.180548 20031.861923 20713.513479 20587.728504 20310.215178 20652.166727 20207.508555 19190.543813 18364.744436 18511.108452 19252.621894 20294.074997 20903.937821 21097.938787 21267.586983 21032.157913 20234.836406 19737.706372 20063.311090 20437.521004 20598.609210 20449.751139 20400.984516 19951.846947 19228.331931 18609.467443 18324.046607 18893.938444 19628.106699 20337.176171 20062.374075 19290.551304 19118.336326 18869.092003 19102.521317 20115.038158 21155.862912 21660.989047 20714.549537 19641.474815 19427.046455 19267.247407 19032.559168 18877.328585 18926.728961 19660.738379 20318.459626 20455.664816 20223.645015 20209.032385 20188.978637 19986.690386 19809.538475 19882.009318 19901.020670 19568.392116 19254.753877 18956.357681 18535.236844 18437.241412 18511.846714 18433.289512 18014.954592 17637.442366 17565.862081 17354.841199 17097.612903 16705.002978 16493.495079 16975.189899 17419.077817 17736.340293 16998.530804 16636.355189 16370.732171 16559.641319 16747.965604 16643.225509 16561.466382 16451.652705 16366.410784 16238.119530 16276.614366 16452.124767 16453.750209 16320.119422 16053.750461 15943.419022 16005.824775 16108.150443 16032.571162 15562.667756 15301.351860 14990.191680 14963.953966 15165.517387 15067.438327 14951.806276 15239.471396 15472.777893 14282.154360 13428.451884 11187.850748 8761.113964 8012.564240 8156.264152 7867.128462 7739.983036 7601.454395 6672.295085 5125.251383 4903.780729 5284.679870 6024.782156 5303.878380 1763.163915 -581.869105 -30.320764 848.791419 222.131140 -1196.371092 1182.322974 3967.024840 5133.770258 4662.208350 4985.759596 6522.277683 7694.283707 8178.873953 8645.463375 8645.346973 8152.523075 7599.378191 7563.529767 8575.063765 10239.476216 11929.494445 12561.832902 12696.887288 13159.397323 13722.930915 14143.411937 14464.644119 14572.712906 14539.893119 14630.976691 15295.738203 16013.427674 16323.528127 16127.087191 15835.399774 15589.148851 15380.011441 15440.757632 15674.754872 16100.615567 16437.219524 16339.309460 16235.144805 16363.807006 16603.703755 17070.212361 17269.702469 17086.607858 16938.703794 16965.903099 17179.651496 17668.256191 18039.698021 17914.478053 17638.558675 17679.783753 17731.191592 17738.096323 17939.491175 18138.774785 18696.304224 19363.589460 20051.786038 20748.759088 21215.987951 21376.171633 21504.101822 21491.929454 21215.140628 20894.768377 20714.791454 20976.804398 21572.938072 21912.768586 22105.037191 22024.953360 21622.087557 21312.897112 21063.800483 20980.334137 20982.552866 20752.254003 20570.236848 20637.185474 20428.780939 20014.144119 19878.473996 20172.669313 20375.077029 19999.782006 19638.335222 19799.163541 19887.617975 19381.117779 18669.386186 18539.386290 19344.997378 20504.164525 20784.800807 20539.378252 20367.892740 20233.857509 19929.082269 19659.709634 19798.798541 20182.012627 20173.321217 19944.738906 19951.271589 19540.862368 18788.420335 18415.249669 18129.153827 18084.071436 18619.532055 19338.845741 19386.725542 19172.162144 19106.222466 19105.427784 19216.282531 19731.427819 20323.354887 20473.215283 20092.507263 19570.802703 19236.915009 19201.510640 19225.602868 19194.394186 19428.717172 19931.123247 20319.903163 20401.083170 20358.026487 20178.861378 19941.841814 19785.305543 19725.712713 19743.794140 19551.329353 19206.842740 19000.324477 18838.530174 18640.866998 18501.161585 18340.577162 18083.671404 17742.598732 17428.517594 17152.833815 16920.321186 16781.571852 16641.107534 16359.946202 16238.417758 16319.674958 16682.082744 16795.140729 16591.142740 16474.040592 16576.788493 16638.407547 16627.955402 16583.023672 16461.422743 16339.174559 16303.963276 16339.891719 16385.684714 16356.483875 16226.222630 16075.520495 15935.652175 15815.971072 15858.356023 15992.750924 15817.337255 15498.760081 15385.309896 15470.279374 15510.565755 15494.702557 15495.706189 15645.914305 15892.574284 16110.283486 14336.468483 14251.807300 13501.887797 11759.125817 9895.976116 8862.565468 8535.885523 8352.605130 8259.108066 8073.076304 7661.027422 6953.773404 6120.262014 5509.141259 5854.980245 6869.866215 6921.182939 5447.662795 4770.119863 4874.551893 4665.344181 4480.315355 4104.092229 3772.143994 3647.817045 4054.746043 5168.052909 6520.353850 7542.047621 8227.733828 8510.939254 8481.073778 8265.323000 8175.891721 8505.705262 9232.345800 10283.641551 11325.786267 12019.413121 12448.864865 12875.018092 13318.879350 13725.017314 14049.960602 14275.353939 14458.023088 14709.782697 15126.696693 15620.764977 15874.149693 15829.803716 15626.639276 15403.246484 15246.801996 15222.952023 15356.354152 15679.295528 15995.502154 16151.310734 16228.454972 16350.283924 16538.110626 16795.165879 16987.185445 17006.785052 16992.140270 17054.687291 17226.389645 17495.507170 17784.309329 17919.378949 17920.954489 17915.116397 17896.295781 17939.321463 18092.699179 18397.457318 18863.346747 19405.852456 19967.827657 20457.353868 20770.160359 20955.080642 21062.242555 21107.601012 21053.957598 20935.196737 20888.329272 21042.279685 21331.557824 21588.960059 21687.475131 21572.805817 21317.982036 21090.294736 20901.887286 20782.602511 20690.247769 20519.957473 20347.348469 20259.379830 20158.635501 20029.343906 20014.724961 20066.201748 20083.921533 19917.832123 19715.305887 19566.882500 19350.643885 19023.002881 18783.296807 18868.224628 19314.156132 19807.815914 19984.978864 19942.275984 19896.231247 19796.860450 19649.733581 19555.667727 19592.330870 19736.482205 19719.024784 19553.534610 19378.182829 19099.469583 18699.770926 18397.582335 18281.500081 18196.683656 18443.210357 18750.576579 18870.600983 18933.883757 18995.981821 19063.290063 19184.224017 19465.956860 19752.901940 19836.584603 19755.092890 19610.221249 19481.108426 19446.132240 19432.355707 19425.449871 19583.306754 19866.532028 20083.368448 20137.949400 20102.472710 19989.056911 19846.549341 19724.602514 19631.363349 19515.674663 19305.622448 19045.290969 18808.154010 18605.780870 18418.162129 18221.032766 17994.194999 17750.092509 17528.212470 17318.326640 17077.946723 16813.560434 16549.941740 16379.985614 16251.259086 16137.229303 16160.465069 16256.726494 16360.628008 16399.510928 16476.115125 16521.177565 16503.016213 16478.459328 16450.800015 16390.444223 16316.549160 16292.693976 16295.306905 16280.827641 16225.219535 16129.780850 16044.594225 15960.450154 15885.959671 15887.359690 15912.253915 15833.535659 15663.666102 15554.913879 15513.221964 15508.112714 15570.718689 15696.625245 15870.211424 16079.717055 16257.794420 16344.449257 15472.777893 14848.890717 14091.731882 13815.056081 13685.613294 13291.362148 12759.333865 12391.674728 12040.606470 11590.986208 10947.522741 10120.143191 9237.756016 8382.143520 7756.888679 7267.127093 6845.683148 6396.342739 6273.054512 6220.929847 6245.219334 6251.927334 6042.176698 5678.756076 5211.937830 4732.151848 4320.844330 3950.918136 3619.612403 3323.442554 3059.113531 2823.127284 2612.016611 2422.572978 2251.917944 2097.518271 1957.168702 1828.960526 1711.248886 1602.624227 1501.888051 1408.031309 1320.213867 1237.744253 1160.059606 1086.706140 1017.320636 951.613396 889.352981 830.352920 774.460406 721.546944 671.500800 624.221075 579.613227 537.585809 498.048232 460.909369 426.076809 393.456609 362.953421 334.470852 307.911991 283.180014 260.178802 238.813551 218.991321 200.621529 183.616351 167.891050 153.364227 139.957986 127.598046 116.213783 105.738228 96.108021 87.263338 79.147784 71.708279 64.894920 58.660847 52.962095 47.757451 43.008309 38.678532 34.734313 31.144043 27.878184 24.909149 22.211181 19.760243 17.533906 15.511240 13.672682 11.999854 10.475157 9.080659 7.794677 6.575731 5.382916 4.754183 16110.283486 15747.037234 15116.638262 14544.640900 14265.718973 14005.474651 13583.725873 13147.214118 12753.545932 12294.157791 11733.728783 11104.925289 10381.255417 9590.153667 8859.414104 8245.187785 7720.985897 7285.704504 6937.183276 6714.305423 6539.444480 6411.962766 6284.111349 6042.830665 5637.434583 5167.849581 4722.707248 4316.800585 3948.717072 3617.929329 3321.994731 3057.856990 2822.032571 2611.064239 2421.746558 2251.202100 2096.898816 1956.632900 1828.497026 1710.847497 1602.275732 1501.584117 1407.764464 1319.977509 1237.532659 1159.867917 1086.530323 1017.157422 951.460199 889.207813 830.214299 774.327272 721.418576 671.376740 624.101067 579.497161 537.473672 497.940073 460.805269 425.976855 393.360884 362.861986 334.383744 307.829219 283.101555 260.104606 238.743539 218.925394 200.559566 183.558217 167.836597 153.313299 139.910423 127.553683 116.172457 105.699775 96.072284 87.230161 79.117018 71.679780 64.868551 58.636477 52.939599 47.736710 42.989213 38.660974 34.718193 31.129268 27.864665 24.896803 22.199931 19.750017 17.524645 15.502904 13.665298 11.993644 10.470992 9.081575 7.811046 6.650073 5.612500 4.923926 4.638341 16344.449257 16214.566661 15878.978107 15375.056427 14881.610141 14488.541663 14124.749192 13720.327363 13291.369089 12848.651994 12358.670068 11795.133587 11167.179361 10482.592071 9768.856389 9089.148871 8481.574303 7950.856582 7511.786579 7169.332553 6921.509719 6717.721317 6522.589624 6287.205459 5966.428566 5572.178153 5143.589796 4717.240427 4316.147954 3949.734987 3619.276575 3323.322769 3059.076135 2823.116659 2612.013659 2422.572123 2251.917670 2097.518179 1957.168672 1828.960517 1711.248884 1602.624226 1501.888050 1408.031309 1320.213866 1237.744253 1160.059606 1086.706140 1017.320636 951.613396 889.352981 830.352920 774.460406 721.546944 671.500800 624.221075 579.613227 537.585809 498.048232 460.909369 426.076809 393.456609 362.953421 334.470852 307.911991 283.180014 260.178802 238.813551 218.991321 200.621529 183.616351 167.891050 153.364227 139.957986 127.598046 116.213783 105.738228 96.108021 87.263338 79.147784 71.708279 64.894920 58.660847 52.962095 47.757451 43.008309 38.678532 34.734313 31.144043 27.878184 24.909150 22.211184 19.760253 17.533939 15.511347 13.673035 12.001008 10.478934 9.093025 7.835009 6.710710 5.759374 5.047494 4.681523 4.574933 4.754183 4.364486 3.748574 3.259849 2.850952 2.495651 2.183575 1.908672 1.666479 1.453274 1.265800 1.101156 0.956747 0.830248 0.719584 0.622898 0.538534 0.465018 0.401039 0.345432 0.297164 0.255322 0.219098 0.187778 0.160733 0.137412 0.117327 0.100051 0.085213 0.072483 0.061578 0.052247 0.044274 0.037470 0.031672 0.026737 0.022543 0.018982 0.015963 0.013408 0.011247 0.009422 0.007883 0.006587 0.005497 0.004582 0.003814 0.003171 0.002632 0.002183 0.001807 0.001495 0.001235 0.001018 0.000839 0.000690 0.000567 0.000465 0.000381 0.000312 0.000255 0.000208 0.000170 0.000138 0.000112 0.000091 0.000074 0.000060 0.000048 0.000039 0.000031 0.000025 0.000020 0.000016 0.000013 0.000010 0.000008 0.000006 0.000004 0.000003 0.000002 0.000001 -0.000000 -0.000001 -0.000002 -0.000003 -0.000004 -0.000006 -0.000008 -0.000010 -0.000012 -0.000015 -0.000019 -0.000024 -0.000029 -0.000036 -0.000044 -0.000054 -0.000067 -0.000082 -0.000100 -0.000122 -0.000149 -0.000182 -0.000221 -0.000269 -0.000326 -0.000396 -0.000479 -0.000579 -0.000699 -0.000843 -0.001015 -0.001220 -0.001465 -0.001757 -0.002105 -0.002517 -0.003007 -0.003587 -0.004272 -0.005083 -0.006038 -0.007164 -0.008488 -0.010043 -0.011867 -0.014004 -0.016503 -0.019422 -0.022827 -0.026792 -0.031404 -0.036761 -0.042973 -0.050168 -0.058488 -0.068097 -0.079178 -0.091938 -0.106611 -0.123459 -0.142778 -0.164898 -0.190188 -0.219063 -0.251982 -0.289459 -0.332062 -0.380423 -0.435241 -0.497289 -0.567418 -0.646567 -0.735766 -0.836144 -0.948940 -1.075503 -1.217307 -1.375956 -1.553190 -1.750895 -1.971113 -2.216045 -2.488062 -2.789714 -3.123734 -3.493043 -3.900764 -4.350220 -4.844941 -5.388670 -5.985364 -6.639194 -7.354549 -8.136032 -8.988457 -9.916846 -10.926423 -12.022602 -13.210977 -14.497313 -15.887524 -17.387658 -19.003876 -20.742425 -22.609618 -24.611796 -26.755302 -29.046446 -31.491469 -34.096519 -36.867656 -39.810959 -42.932986 -46.242391 -49.755393 -53.513719 -57.663996 -62.449888 -65.298123 4.638341 4.509406 4.162329 3.685156 3.240741 2.843864 2.492280 2.181456 1.907053 1.665120 1.452091 1.264758 1.100234 0.955931 0.829528 0.718948 0.622338 0.538041 0.464585 0.400658 0.345098 0.296872 0.255067 0.218875 0.187583 0.160564 0.137265 0.117199 0.099941 0.085117 0.072400 0.061506 0.052185 0.044221 0.037425 0.031633 0.026704 0.022514 0.018957 0.015942 0.013390 0.011231 0.009409 0.007872 0.006578 0.005489 0.004575 0.003808 0.003166 0.002628 0.002179 0.001805 0.001492 0.001233 0.001017 0.000838 0.000689 0.000566 0.000465 0.000381 0.000311 0.000255 0.000208 0.000169 0.000138 0.000112 0.000091 0.000074 0.000060 0.000048 0.000039 0.000031 0.000025 0.000020 0.000016 0.000013 0.000010 0.000008 0.000006 0.000004 0.000003 0.000002 0.000001 -0.000000 -0.000001 -0.000002 -0.000003 -0.000004 -0.000006 -0.000008 -0.000010 -0.000012 -0.000015 -0.000019 -0.000023 -0.000029 -0.000036 -0.000044 -0.000054 -0.000067 -0.000082 -0.000100 -0.000122 -0.000149 -0.000181 -0.000221 -0.000268 -0.000326 -0.000395 -0.000478 -0.000578 -0.000698 -0.000842 -0.001013 -0.001219 -0.001463 -0.001755 -0.002102 -0.002514 -0.003003 -0.003582 -0.004267 -0.005076 -0.006030 -0.007155 -0.008477 -0.010031 -0.011853 -0.013987 -0.016484 -0.019400 -0.022801 -0.026763 -0.031370 -0.036722 -0.042928 -0.050117 -0.058430 -0.068030 -0.079101 -0.091851 -0.106512 -0.123347 -0.142650 -0.164754 -0.190025 -0.218879 -0.251775 -0.289225 -0.331799 -0.380129 -0.434912 -0.496921 -0.567008 -0.646110 -0.735257 -0.835579 -0.948313 -1.074809 -1.216540 -1.375109 -1.552257 -1.749869 -1.969986 -2.214810 -2.486712 -2.788239 -3.122125 -3.491292 -3.898861 -4.348156 -4.842706 -5.386255 -5.982758 -6.636388 -7.351533 -8.132796 -8.984991 -9.913142 -10.922472 -12.018395 -13.206507 -14.492572 -15.882507 -17.382359 -18.998291 -20.736552 -22.603454 -24.605341 -26.748557 -29.039409 -31.484132 -34.088846 -36.859512 -39.801887 -42.921475 -46.223447 -49.712384 -53.390602 -57.240375 -61.125797 -63.874810 -64.952262 4.574933 4.537980 4.376212 4.046809 3.641970 3.227718 2.841116 2.492646 2.182658 1.908392 1.666393 1.453248 1.265792 1.101154 0.956746 0.830248 0.719584 0.622898 0.538534 0.465018 0.401039 0.345432 0.297164 0.255322 0.219098 0.187778 0.160733 0.137412 0.117327 0.100051 0.085213 0.072483 0.061578 0.052247 0.044274 0.037470 0.031672 0.026737 0.022543 0.018982 0.015963 0.013408 0.011247 0.009422 0.007883 0.006587 0.005497 0.004582 0.003814 0.003171 0.002632 0.002183 0.001807 0.001495 0.001235 0.001018 0.000839 0.000690 0.000567 0.000465 0.000381 0.000312 0.000255 0.000208 0.000170 0.000138 0.000112 0.000091 0.000074 0.000060 0.000048 0.000039 0.000031 0.000025 0.000020 0.000016 0.000013 0.000010 0.000008 0.000006 0.000004 0.000003 0.000002 0.000001 -0.000000 -0.000001 -0.000002 -0.000003 -0.000004 -0.000006 -0.000008 -0.000010 -0.000012 -0.000015 -0.000019 -0.000024 -0.000029 -0.000036 -0.000044 -0.000054 -0.000067 -0.000082 -0.000100 -0.000122 -0.000149 -0.000182 -0.000221 -0.000269 -0.000326 -0.000396 -0.000479 -0.000579 -0.000699 -0.000843 -0.001015 -0.001220 -0.001465 -0.001757 -0.002105 -0.002517 -0.003007 -0.003587 -0.004272 -0.005083 -0.006038 -0.007164 -0.008488 -0.010043 -0.011867 -0.014004 -0.016503 -0.019422 -0.022827 -0.026792 -0.031404 -0.036761 -0.042973 -0.050168 -0.058488 -0.068097 -0.079178 -0.091938 -0.106611 -0.123459 -0.142778 -0.164898 -0.190188 -0.219063 -0.251982 -0.289459 -0.332062 -0.380423 -0.435241 -0.497289 -0.567418 -0.646567 -0.735766 -0.836144 -0.948940 -1.075503 -1.217307 -1.375956 -1.553190 -1.750895 -1.971113 -2.216045 -2.488062 -2.789714 -3.123734 -3.493043 -3.900764 -4.350220 -4.844941 -5.388670 -5.985364 -6.639194 -7.354549 -8.136032 -8.988457 -9.916846 -10.926423 -12.022602 -13.210977 -14.497313 -15.887524 -17.387658 -19.003876 -20.742425 -22.609618 -24.611794 -26.755297 -29.046429 -31.491413 -34.096336 -36.867060 -39.809015 -42.926654 -46.221764 -49.688176 -53.295286 -56.940988 -60.344002 -63.046440 -64.410331 -64.761641 -65.298123 -68.849810 -75.314661 -81.556520 -87.772847 -94.121824 -100.639791 -107.333562 -114.200253 -121.233421 -128.424895 -135.765342 -143.244443 -150.850969 -158.572824 -166.397089 -174.310076 -182.297393 -190.344015 -198.434367 -206.552421 -214.681790 -222.805832 -230.907762 -238.970763 -246.978109 -254.913310 -262.760290 -270.503638 -278.128937 -285.623218 -292.975515 -300.177479 -307.223916 -314.113030 -320.846101 -327.426404 -333.857522 -340.141843 -346.280976 -352.280373 -358.159808 -363.967590 -369.789109 -375.737416 -381.910006 -388.274868 -394.241587 -397.109761 -396.731396 -423.396566 -411.071936 -315.181114 -275.173435 -85.519265 -47.303118 -244.259405 -497.301212 -610.192883 -604.055245 -735.196920 -751.292693 -679.820714 -558.449518 -559.605305 -698.207118 -1560.427072 -2437.364012 -1721.814487 -1191.865107 -935.482160 -544.870542 -187.125692 -264.663432 -232.930811 -226.493759 -196.535032 -34.956388 -160.440088 -374.033777 -636.308839 -1510.971311 -2287.709057 -2308.780412 -1359.470608 -60.292618 903.371182 1376.743664 2218.149644 3180.121350 3822.650949 4259.106492 5379.156605 6886.659470 7807.287385 7985.664204 7443.767159 7961.322406 9795.476517 11476.460362 12879.999950 -64.952262 -66.497015 -70.253322 -75.771363 -81.674347 -87.802080 -94.124763 -100.634991 -107.326621 -114.192909 -121.226235 -128.418068 -135.758963 -143.238570 -150.845645 -158.568088 -166.392976 -174.306620 -182.294622 -190.341955 -198.433039 -206.551842 -214.681971 -222.806780 -230.909480 -238.973246 -246.981348 -254.917285 -262.764973 -270.508985 -278.134884 -285.629674 -292.982360 -300.184565 -307.231083 -314.120130 -320.853035 -327.433158 -333.864166 -340.148459 -346.287459 -352.286142 -358.163594 -363.967765 -369.784870 -375.729848 -381.908853 -388.323291 -394.562525 -398.647113 -397.770974 -402.339330 -421.625261 -398.838486 -320.415347 -249.051214 -291.483394 -484.195062 -645.394771 -658.313509 -671.628245 -727.732728 -741.549691 -669.738184 -529.267604 -521.399294 -792.819897 -1231.337175 -1659.385646 -1622.947169 -1140.772011 -856.291676 -784.576009 -560.265287 -361.919728 -454.903170 -582.345194 -522.433572 -427.559682 -438.416968 -608.146645 -762.676501 -928.614626 -1350.673040 -1726.050707 -1062.623784 112.161347 726.602733 1434.828325 2199.492015 3227.024475 4304.411618 4923.127928 5943.575431 7455.907939 8384.307972 8458.737223 8442.181802 9293.805337 10647.138412 12576.779945 13977.564140 14282.154360 -64.761641 -65.322098 -67.294598 -71.125406 -76.119980 -81.798818 -87.847449 -94.144713 -100.646818 -107.335719 -114.200915 -121.233624 -128.424957 -135.765361 -143.244449 -150.850971 -158.572825 -166.397089 -174.310076 -182.297393 -190.344015 -198.434367 -206.552421 -214.681790 -222.805832 -230.907762 -238.970763 -246.978109 -254.913310 -262.760290 -270.503638 -278.128937 -285.623218 -292.975515 -300.177479 -307.223916 -314.113030 -320.846101 -327.426405 -333.857523 -340.141849 -346.280997 -352.280443 -358.160079 -363.968655 -369.792361 -375.744931 -381.933856 -388.372225 -394.740117 -399.580078 -399.804452 -395.692447 -393.676778 -387.871480 -370.031136 -369.715134 -420.320688 -521.242856 -600.214099 -620.662334 -623.261816 -635.071543 -667.095924 -696.278715 -700.763301 -754.027275 -922.453419 -1120.478654 -1248.967635 -1215.119522 -1034.387413 -906.248794 -819.974518 -681.234224 -579.092096 -605.362601 -637.119962 -623.950817 -608.697140 -653.582263 -782.753146 -885.182384 -944.738441 -988.351913 -900.591325 -460.704399 184.966819 765.926554 1403.919493 2163.055971 3250.595350 4378.649235 5255.129015 6286.899328 7373.986656 8264.485015 8885.661258 9588.712881 10747.331198 12176.167436 13561.655014 14282.474271 14404.015393 14336.468483 5574.861458 4442.981794 4144.094638 -2890.005863 3510.923184 440.946798 -201.484455 -232.666447 -920.497786 2631.637028 4622.425804 -2061.042074 7089.529404 6480.629552 6925.282409 3508.393709 7481.400707 9761.928549 8524.496424 8929.248946 1508.735949 -1835.236088 -2440.706675 4444.693804 2007.849861 5424.855495 -3832.525720 4917.695402 2567.041899 4345.287883 4153.531850 3231.596348 2906.662759 -3061.215243 5183.451466 7606.792864 5716.211133 1457.334790 6654.936138 7210.451319 5985.153133 2591.592525 -2996.701796 2472.635903 2062.144276 4659.021834 -11054.441349 4591.920215 4083.402808 5632.132533 3897.948330 3222.821540 -13711.983651 7817.476428 4581.228461 6820.054314 6792.405369 7897.888468 7307.703383 7782.119903 2320.293327 8199.776089 341.553315 4414.615564 1397.002844 2663.756965 7205.365673 -2850.601253 150.733292 5613.484576 8419.939125 -6887.412499 3517.537860 -1792.163313 6063.964191 6033.600177 6818.009827 9248.285621 8174.175568 6608.460405 -3586.613585 -18399.663331 4659.185143 6802.252194 -6584.359545 7979.809133 15246.793465 -13159.942411 6182.330756 3312.201066 3856.302472 6202.025285 415.779161 3502.043089 7282.973178 7164.893456 2206.457414 -407.003140 6157.046720 5606.668747 3025.472292 6268.690054 -12979.396606 5400.692279 7296.616667 4650.002787 7999.122718 20043.815286 3851.061728 7460.972969 6420.989238 7482.799329 7735.561798 7176.744902 -1260.544742 6514.993507 -2937.193785 1105.963285 7266.037190 6902.851130 -13347.088695 626.446363 9508.501732 4523.070941 8057.639702 1703.356478 11474.204655 7342.985680 10089.142232 53047.809543 2972.248627 227.496321 3464.055154 7058.369407 -4521.160278 84699.806791 5645.920716 3899.881583 3526.166002 6368.064534 -7597.267032 -19285.499485 88662.324970 9987.593646 9835.042795 4098.014015 4523.444927 6800.616248 7070.597219 979.739370 3453.744696 5086.009716 5442.346268 93727.104083 2126.821392 4429.745527 56034.278669 5597.454739 -5441.998696 3785.018009 9489.652038 6268.342981 6451.398966 57857.006751 8173.530549 3072.454795 11430.742500 16514.319969 8316.365461 2710.744531 21042.082733 6207.168985 4489.431518 788.343464 4159.273784 -8256.887874 4145.479131 6549.167059 5132.880550 5613.009811 -13234.298781 12119.098573 8016.274418 11455.328289 5922.479308 -4052.027229 50165.452382 -16309.830083 6705.411831 9751.369110 -9022.148610 -4719.255622 8176.700200 20409.447228 8502.551628 -11975.003067 -7468.595212 -3367.817528 11691.775924 6758.560371 985.009487 7414.954574 7814.088629 10574.480828 8676.291161 9247.527194 413.443036 8300.696789 1468.516999 17905.033685 9642.536785 9144.958860 4987.050424 13743.486030 12001.526732 72131.997670 4386.203040 4221.771839 3952.151191 8435.985481 11162.141161 31238.781284 70495.134221 12658.739581 4715.409914 8009.952474 10122.390866 4033.274195 11412.573108 12293.029715 10413.029396 -2753.124521 9465.501824 8842.579911 11359.250523 5699.947783 2405.522097 3834.895540 7002.161521 -13247.006447 91447.704330 13200.584632 7619.222024 3249.032444 4908.424461 -12368.371104 12232.266902 11824.545667 6254.275489 10359.410663 7740.974140 10669.886324 9657.402899 9281.557608 12170.723019 8490.471569 -12802.921252 13537.802267 14110.070926 10831.854187 6379.771836 4201.215508 10521.856636 4355.730562 3459.377136 9860.644774 12028.532014 10286.554806 6826.958021 8977.554446 2565.204993 9137.316500 9701.676485 12945.625345 8287.365781 4306.391584 12641.961471 13154.250577 -7494.991549 2603.230146 7821.346982 12724.160849 10012.636316 11306.547794 12934.257015 8463.527146 14316.249502 9470.716847 10907.394536 8103.088288 10888.109492 9987.527261 10304.531287 12857.596348 9029.786440 12399.237782 14039.834316 11149.135545 13122.309172 13891.635896 9329.164784 10786.187841 4189.055100 -14313.792048 10043.287899 9905.978968 12370.544327 10586.710529 10927.366849 11589.888555 13088.975531 13428.928510 3032.897458 9649.978566 9518.090350 10512.112237 12171.019673 5050.513947 8651.556557 14367.786958 9250.201036 12055.775925 14396.827505 10957.639723 10781.953875 4181.788946 10689.737314 10661.039401 12732.522149 11390.242856 14008.457417 13650.576557 13946.867946 12664.250143 11524.169361 14129.454716 7240.743577 -8319.717473 23567.680658 9203.495056 10461.186776 9415.933395 7251.624612 9107.773744 8558.230864 8919.369179 14320.398135 13534.750261 14148.499256 12697.618477 10485.723209 13048.192154 10546.301665 14758.025167 12557.170944 13379.294876 5522.328076 14917.792444 13435.865327 8438.537716 12661.268759 14532.843053 6764.503407 13816.841296 14584.439640 14104.135690 14712.891423 15968.478679 13277.279403 9401.765136 10149.012684 15929.590406 12405.290401 13957.143273 11591.692059 5978.600293 13906.248527 10810.177292 13403.594548 10824.492610 12398.426403 10755.574823 13610.463689 13644.501034 12933.574928 11149.808912 12047.461953 9963.497061 9252.139951 14230.571066 15943.723721 13760.816989 13806.935055 13528.245652 14979.634860 13660.599759 12021.000261 10002.056243 47758.588268 3699.007191 11179.602476 8804.215914 14301.339048 12107.299726 10561.510363 14142.213416 14854.465165 10337.126045 10918.437912 12224.539671 13817.161140 9911.200348 14858.285408 11885.200617 14983.380988 14935.563671 14357.591379 14528.521611 12234.087794 8458.039133 15123.196059 10577.063682 12642.773229 8606.555339 9066.146417 11713.946154 12661.829435 11331.620184 12825.537763 10875.951267 12269.853224 13496.902829 10394.628970 15879.446218 14070.014241 14798.043985 14144.549203 12325.400346 12341.397232 4258.681483 14157.004686 8571.698089 10069.763651 8598.116356 11332.952996 9484.704664 9927.240091 13508.123684 8546.435715 9901.904907 16011.382821 10297.126617 13217.796448 16475.348871 13216.199988 14766.659182 15414.185707 13807.109274 3767.746583 14877.919208 14981.573676 10730.093691 10621.373326 8525.276257 11404.256051 8762.331978 11012.012115 14176.583581 15672.930106 9783.114836 11561.713735 11239.033388 15709.435175 13540.093320 15083.197528 15547.627984 6804.588258 15915.863231 12846.680017 5626.787959 11129.983466 18148.476401 11707.580591 10443.863508 15884.230412 9226.150341 15943.537289 11646.626948 12782.841973 15849.962933 14179.424181 13147.139505 15633.043406 15313.089617 16394.025617 14678.622432 14668.819602 15583.522371 6767.806175 14047.087266 9683.752301 16266.717682 15624.045763 15243.030560 14397.030635 15305.508232 12835.382643 16506.450960 12031.361847 16772.716309 16460.471483 16553.886063 15441.437296 15799.865211 14413.736229 11689.544823 16503.055179 11870.751725 13000.056973 13333.166537 17560.988328 18084.332766 10083.079829 15742.574422 8948.199134 15409.001219 14629.546879 10642.773262 17072.549007 15914.107492 18071.114391 15232.306006 14883.932417 16389.236403 12837.609693 14472.925238 16718.392777 13145.063523 6972.045782 7554.914734 11653.977965 9940.537806 12650.041404 11943.266918 9486.236464 10380.163520 14488.409934 15768.409949 18389.355478 17519.196917 15609.506298 14625.571332 14209.987684 18118.066199 16418.174057 15087.992614 14644.815885 16076.185394 9163.522048 13111.970321 9081.955422 8810.338960 7271.156421 14229.745215 15146.319913 14148.704806 14342.538615 14586.206550 9375.747259 18640.117884 12402.797421 17775.283590 17008.837282 16334.680548 16453.414020 18011.869651 17152.048317 15908.459705 16567.409132 15226.409814 1337.677310 8770.148506 4618.053018 9797.926792 12953.244385 14904.458800 10844.039507 13911.689615 11354.274482 12588.398158 14870.665625 17531.306487 12302.936951 14820.144308 14979.209835 16790.825781 15887.961076 13501.436755 15332.410724 7279.011069 1911.814996 3843.029493 3861.586851 7530.389704 4459.588839 10051.224571 12956.251237 16056.047736 9265.003636 13105.236946 11780.633041 11317.436638 16199.610505 14113.747253 18643.687200 18097.305522 15769.449852 16359.128465 5915.878371 15537.349477 2855.168922 4049.817939 3623.546691 1411.205540 12401.275646 6840.654618 11025.676862 9597.996970 9494.003814 12011.339465 8177.548139 12093.955005 11613.372901 19576.987021 15322.864621 15955.515900 16168.918212 16027.896857 12481.002386 15318.062662 3573.138463 2340.496680 3532.799631 4010.409268 4711.220684 7064.771865 8330.240481 9550.796021 9990.589603 10677.342516 8246.777495 13073.227384 18453.895907 12383.851908 14661.636909 18171.451453 17067.154524 12755.139910 13729.225082 12090.289428 3022.439682 3483.273146 6325.351209 2149.629859 4568.550423 8870.849380 7012.677892 7500.578498 9944.854324 7890.000234 11961.459092 12641.883384 10405.306725 11444.843897 16192.382739 16036.078527 15243.297683 15502.029936 12419.904538 12116.555490 1261.794092 1741.586679 3059.883572 3801.304743 6665.488419 5733.517205 8348.682026 10144.859177 10289.769104 11322.529304 12844.814842 14857.636493 12408.655646 18298.954036 18009.796267 16810.067262 14894.042171 16958.562500 16846.671639 17318.331404 8324.050154 2112.763947 4715.590770 4192.621429 3494.