<VTKFile type="PolyData">
<PolyData>
<Piece NumberOfPoints="6715" NumberOfVerts="6715" NumberOfLines="0" NumberOfStrips="0" NumberOfPolys="0">
<PointData>
<DataArray type="Float64" Name="Pressure" format="ascii">
 5981.976096 6555.360814 7052.163651 6946.354891 6624.284989 6328.820138 6760.337486 7345.724391 6284.478923 3779.910872 1527.621969 3251.231044 7119.013218 -117.338434 -12015.051223 -15017.097364 -14518.924006 -9430.471549 -1328.574295 3799.342426 1366.583897 -1771.463992 -1684.755842 454.075402 2917.172898 4809.310119 5875.810984 6290.091664 6809.067038 7661.909926 8356.236358 9055.291809 9507.563141 9396.369165 9275.404991 9481.056623 9748.724144 9904.611706 10293.791486 10764.823327 11080.389609 11105.507292 11287.268653 11731.538949 12136.894822 12262.607646 12198.420377 12128.463381 12299.327375 12864.584268 13256.243261 13184.165525 13102.820989 13138.720972 13200.840379 13231.254325 13295.385280 13426.948636 13428.703085 13163.932671 12895.437632 12988.248986 13422.731719 13411.503340 12960.957528 12360.761046 12063.199620 12068.049376 12180.621190 12305.615661 12597.699259 12782.961572 12812.002051 12809.122702 13029.629662 13565.953636 14073.609771 14347.793637 14251.532201 14244.139112 14622.121386 15085.663730 15395.536700 15525.807768 15490.940377 15182.169271 14931.224097 15311.742689 15790.680577 15935.507626 15745.673169 15387.983874 15524.050618 16263.568219 16754.745942 16775.786340 16450.168600 16197.655132 16190.215487 16266.178102 16413.659431 16602.699325 16795.391416 16812.984401 16864.630989 16998.679688 17219.524813 17211.506331 17133.950127 17280.864656 17915.353179 18282.559870 17995.551996 17673.179243 17525.314350 17279.339053 17207.528003 17793.013195 18622.820174 19342.509358 19385.637148 18994.759032 18758.893768 18991.002747 19440.410860 19627.004527 19613.461693 20023.422996 20593.217736 21056.829238 21426.142358 21188.079627 20701.441249 20428.378126 20359.524698 20644.550785 21133.788213 21942.814426 22777.604839 22646.620973 22471.368574 22740.650288 22709.203798 22414.438895 22187.312010 21940.623229 21508.271201 20961.939833 20195.433772 19848.670669 20660.591499 21800.958271 22629.668040 22248.020195 21809.925652 21704.798173 21458.489946 20937.312895 20276.844460 19771.143882 19539.435011 19532.707606 19701.663726 19994.768116 20070.774090 19816.062655 19288.716178 18579.706462 18126.600432 17933.964024 17817.154600 17884.110660 18114.607781 18215.002388 18076.282190 17813.239982 17721.795957 17691.183618 17603.619262 17532.206625 17464.744932 17342.284055 17170.376636 17070.886577 17002.988337 16831.986161 16623.795094 16507.626503 16402.007249 16338.004052 16289.854416 16206.689281 16112.193031 16065.107095 15928.997677 15655.400391 15281.159829 14877.193197 14486.195588 14130.870566 13873.423628 5674.725367 5918.127101 6349.070768 6715.055147 6854.076960 6825.322854 6759.749188 6870.880808 6830.162482 5775.687830 3973.717382 1852.352908 645.185289 1977.629423 2297.776631 -2062.326797 -4601.411796 -3374.007213 1149.200927 3283.716260 1521.111560 -1184.760149 -1523.059677 144.920010 2258.744512 3897.905327 4974.957612 5657.116016 6106.595843 6683.417519 7449.582433 8158.905078 8740.961494 9030.876876 9000.655350 9023.111724 9362.266292 9855.094343 10218.800026 10384.877523 10535.527701 10766.638635 10931.394817 11170.856649 11585.939077 11964.042733 12162.149539 12228.085703 12252.664949 12377.824409 12661.313785 12920.023202 13003.141453 13002.179993 13019.445009 13076.625816 13136.053493 13218.894044 13268.511250 13210.297432 13084.456272 12961.994598 13008.381501 13211.952938 13206.229911 12896.816660 12539.105115 12400.081189 12420.649706 12449.243908 12492.222256 12588.111321 12713.419832 12823.461269 12922.918524 13135.190822 13574.278844 14081.912733 14352.296501 14380.752147 14464.741847 14739.422060 15065.277314 15313.617134 15427.443541 15386.816896 15248.374463 15162.440172 15383.765032 15767.338720 15917.109097 15799.226704 15705.327159 15847.185124 16160.692717 16381.283058 16384.825791 16236.651439 16126.840861 16175.233862 16304.213042 16425.502281 16550.218967 16666.845543 16737.282279 16892.097234 17124.986795 17334.079985 17453.365318 17442.326425 17527.330955 17925.818713 18198.624420 18065.161433 17779.159048 17603.119861 17551.688267 17651.877199 18088.186299 18770.288153 19373.250475 19571.618786 19400.065401 19236.121183 19423.179480 19705.295700 19841.120275 19990.435904 20338.656737 20763.981022 21068.909466 21269.874951 21201.442932 20952.377589 20845.371260 20992.287697 21309.015488 21711.748200 22134.046196 22439.987617 22479.327769 22566.824661 22795.494549 22813.837606 22570.254023 22317.644997 22085.212356 21796.113698 21388.223192 20833.242809 20506.711139 20873.975139 21516.244544 21826.062825 21712.824898 21571.535237 21452.905255 21240.046081 20834.382896 20320.825485 19901.874373 19648.534616 19592.062591 19643.651695 19650.987351 19577.495155 19335.945791 18849.929955 18201.556556 17739.212666 17623.090853 17644.666107 17648.224245 17651.346129 17622.364872 17492.488272 17348.386946 17294.343526 17260.539739 17179.184067 17093.021443 16997.617282 16874.191489 16747.940482 16660.837131 16586.852842 16468.408867 16329.998790 16224.002434 16134.907584 16071.468017 16005.769268 15898.957248 15781.750197 15657.178052 15510.450445 15264.181148 14926.383548 14599.656915 14274.159068 13978.517090 13782.269124 13672.615272 5632.161842 5698.930283 5931.778868 6315.892664 6629.012003 6791.687801 6817.100906 6746.664989 6629.675206 6260.978346 5376.275870 3824.315808 1616.197838 -516.750815 -1070.489141 417.058191 2021.751927 1761.032545 2165.511624 2738.361131 987.423194 -1660.600425 -2558.188941 -1232.799834 911.100283 2652.893404 3802.709199 4639.214671 5315.239650 5943.329893 6642.585972 7384.998440 8030.754735 8508.822089 8778.832903 8898.098941 9073.996552 9455.622797 9937.296039 10259.606578 10357.576235 10468.631565 10650.505361 10845.841717 11108.662181 11459.563747 11795.774327 12035.435401 12189.120929 12309.341845 12477.043826 12679.016401 12840.626717 12931.740147 12973.197791 13006.821463 13037.989712 13069.977524 13115.115316 13123.082286 13071.605418 13006.851958 12958.295340 12976.429341 13051.531600 13029.469975 12843.306042 12640.657307 12562.691521 12564.034071 12566.476705 12585.786796 12651.974438 12771.590643 12916.392369 13073.593961 13291.051147 13612.785185 13969.762422 14223.082134 14364.727551 14525.050018 14777.022819 15055.706572 15269.959980 15380.852594 15396.108402 15369.565258 15379.662157 15527.121099 15786.240299 15969.686065 16015.815583 16053.494508 16157.487437 16272.220081 16318.440359 16280.965057 16212.075376 16184.954954 16256.906991 16391.011666 16505.950361 16602.611235 16707.927013 16826.487420 16988.512063 17186.831704 17370.238017 17504.607703 17557.615998 17640.433374 17865.632575 18058.732348 18044.270538 17915.000829 17852.195039 17922.804558 18105.534883 18447.395409 18927.874459 19347.235832 19545.635780 19550.404659 19540.260159 19659.356267 19806.199638 19910.943896 20047.034995 20319.675182 20656.814350 20938.019856 21141.549500 21233.619913 21221.519586 21249.628623 21441.436166 21698.983185 21942.267987 22150.677163 22302.299981 22387.195322 22497.565781 22629.722742 22635.409975 22492.335740 22310.649363 22121.685902 21901.593295 21605.362059 21264.575088 21075.558690 21173.074562 21409.843116 21530.664769 21519.343692 21456.520325 21346.156892 21143.248512 20804.038192 20393.416247 20033.074847 19784.019614 19657.163268 19575.922434 19455.118601 19295.921872 19052.990156 18647.591329 18107.958484 17675.313948 17540.535523 17575.768631 17580.717013 17484.795646 17361.768345 17248.367292 17179.292217 17134.129503 17076.906967 16991.062622 16895.293683 16800.655410 16702.997950 16606.829345 16519.820397 16434.701113 16335.041379 16231.868574 16150.675809 16087.265968 16020.648201 15929.192638 15803.688984 15671.419484 15521.273194 15323.197014 15067.063968 14784.086481 14497.887114 14217.952544 13968.276576 13764.158651 13639.140223 13594.276907 13873.423628 14113.080605 14297.866922 14204.114518 13925.364600 13733.616367 13611.936181 13369.848041 12925.985440 12300.071779 11553.219233 10797.699694 10169.001629 9643.183367 9295.311502 9069.298648 8784.812618 8571.872223 8541.724567 8804.933085 9501.716688 11574.094377 14750.626849 16257.343850 13781.216509 9790.916962 6618.873541 4898.763329 4091.283227 3637.294497 3348.074121 3140.001574 2969.750073 2816.263374 2670.890306 2530.351673 2393.583149 2260.443975 2131.162792 2006.092453 1885.597130 1769.996735 1659.539182 1554.388691 1454.624467 1360.246203 1271.183762 1187.309033 1108.448482 1034.395339 964.920742 899.783416 838.737708 781.539952 727.953257 677.750873 630.718354 586.654718 545.372838 506.699238 470.473489 436.547342 404.783700 375.055553 347.244912 321.241796 296.943321 274.252871 253.079395 233.336795 214.943427 197.821680 181.897643 167.100834 153.363982 140.622861 128.816147 117.885308 107.774515 98.430555 89.802759 81.842937 74.505303 67.746415 61.525097 55.802371 50.541380 45.707307 41.267302 37.190389 33.447387 30.010819 26.854808 23.954945 21.288044 18.831532 16.561611 14.447519 12.424427 10.426327 9.366020 13672.615272 13755.028817 13891.519690 13980.503186 13875.843156 13638.767633 13425.507866 13216.637459 12916.026579 12474.481465 11897.532157 11229.290470 10558.891566 9974.854507 9470.804018 9054.952377 8720.645910 8419.125676 8193.060907 8103.591435 8239.223712 8853.683865 10510.116780 12606.569809 13388.621222 11691.091200 8642.898592 6151.152469 4786.517850 4060.500689 3625.377634 3342.859523 3138.036517 2969.006142 2815.932278 2670.700087 2530.202780 2393.436232 2260.283966 2130.984872 2005.896483 1885.385319 1769.772493 1659.306431 1554.151398 1454.386342 1360.010509 1270.953216 1187.085773 1108.234083 1034.190865 964.726810 899.600270 838.565298 781.378007 727.801347 677.608468 630.584866 586.529542 545.255373 506.588910 470.369763 436.449724 404.691748 374.968871 347.163146 321.164635 296.870489 274.184125 253.014517 233.275589 214.885716 197.767301 181.846445 167.052675 153.318728 140.580382 128.776318 117.848010 107.739631 98.397969 89.772361 81.814618 74.478959 67.721942 61.502397 55.781347 50.521939 45.689362 41.250766 37.175183 33.433439 29.998067 26.843227 23.944615 21.279379 18.826046 16.564504 14.476463 12.551592 10.818401 9.663162 9.184389 13594.276907 13624.780154 13698.156008 13791.561120 13823.577370 13725.755790 13537.744838 13318.359645 13054.731632 12711.366561 12269.388312 11722.121657 11099.565971 10472.595733 9899.173439 9385.923041 8935.980183 8551.469350 8227.863682 7982.871499 7869.370240 7946.772051 8359.116650 9392.418954 10758.521103 11137.106327 9830.977570 7633.691529 5839.421935 4730.981036 4054.590005 3626.523027 3344.166943 3138.918622 2969.511204 2816.211429 2670.877837 2530.348679 2393.582469 2260.443828 2131.162762 2006.092448 1885.597129 1769.996735 1659.539182 1554.388691 1454.624467 1360.246203 1271.183762 1187.309033 1108.448482 1034.395339 964.920742 899.783416 838.737708 781.539952 727.953257 677.750873 630.718354 586.654718 545.372838 506.699238 470.473489 436.547342 404.783700 375.055553 347.244912 321.241796 296.943321 274.252871 253.079395 233.336795 214.943427 197.821680 181.897643 167.100834 153.363982 140.622861 128.816147 117.885308 107.774515 98.430555 89.802759 81.842937 74.505303 67.746415 61.525097 55.802371 50.541380 45.707308 41.267303 37.190394 33.447405 30.010876 26.854993 23.955549 21.290017 18.837979 16.582699 14.516228 12.654056 11.068006 9.876079 9.262883 9.084854 9.366020 8.679614 7.582334 6.696532 5.943617 5.279568 4.687742 4.158773 3.685873 3.263373 2.886262 2.550021 2.250549 1.984124 1.747364 1.537203 1.350864 1.185832 1.039837 0.910829 0.796962 0.696573 0.608168 0.530404 0.462079 0.402116 0.349552 0.303526 0.263272 0.228106 0.197420 0.170674 0.147389 0.127141 0.109553 0.094294 0.081071 0.069625 0.059729 0.051182 0.043810 0.037458 0.031992 0.027292 0.023258 0.019797 0.016833 0.014296 0.012128 0.010278 0.008700 0.007356 0.006212 0.005241 0.004416 0.003717 0.003125 0.002625 0.002202 0.001845 0.001544 0.001291 0.001078 0.000899 0.000749 0.000623 0.000518 0.000429 0.000356 0.000294 0.000243 0.000200 0.000164 0.000134 0.000109 0.000088 0.000071 0.000056 0.000043 0.000031 0.000021 0.000012 0.000003 -0.000006 -0.000015 -0.000024 -0.000034 -0.000045 -0.000058 -0.000073 -0.000090 -0.000111 -0.000135 -0.000163 -0.000197 -0.000238 -0.000286 -0.000343 -0.000411 -0.000491 -0.000587 -0.000700 -0.000834 -0.000992 -0.001179 -0.001399 -0.001659 -0.001964 -0.002324 -0.002745 -0.003239 -0.003817 -0.004494 -0.005284 -0.006205 -0.007278 -0.008528 -0.009979 -0.011664 -0.013618 -0.015879 -0.018495 -0.021516 -0.025001 -0.029016 -0.033635 -0.038945 -0.045039 -0.052025 -0.060023 -0.069170 -0.079616 -0.091532 -0.105107 -0.120552 -0.138104 -0.158024 -0.180603 -0.206166 -0.235068 -0.267706 -0.304514 -0.345975 -0.392617 -0.445020 -0.503822 -0.569719 -0.643475 -0.725921 -0.817963 -0.920587 -1.034863 -1.161951 -1.303105 -1.459681 -1.633140 -1.825055 -2.037114 -2.271128 -2.529036 -2.812907 -3.124948 -3.467507 -3.843076 -4.254296 -4.703960 -5.195014 -5.730559 -6.313855 -6.948315 -7.637508 -8.385159 -9.195139 -10.071468 -11.018305 -12.039941 -13.140792 -14.325388 -15.598363 -16.964437 -18.428407 -19.995125 -21.669481 -23.456386 -25.360742 -27.387428 -29.541265 -31.826996 -34.249254 -36.812533 -39.521162 -42.379290 -45.390894 -48.559905 -51.890681 -55.389632 -59.070724 -62.973428 -67.242461 -72.114489 -74.992861 9.184389 8.951200 8.330352 7.472361 6.663563 5.931473 5.273833 4.684134 4.155992 3.683508 3.261285 2.884394 2.548344 2.249044 1.982773 1.746153 1.536119 1.349894 1.184965 1.039064 0.910140 0.796349 0.696028 0.607683 0.529974 0.461698 0.401779 0.349254 0.303263 0.263040 0.227902 0.197240 0.170516 0.147251 0.127020 0.109447 0.094202 0.080990 0.069555 0.059668 0.051129 0.043764 0.037418 0.031957 0.027262 0.023231 0.019775 0.016813 0.014279 0.012114 0.010265 0.008689 0.007347 0.006205 0.005234 0.004410 0.003712 0.003121 0.002621 0.002199 0.001842 0.001542 0.001289 0.001076 0.000897 0.000748 0.000622 0.000517 0.000429 0.000355 0.000294 0.000243 0.000200 0.000164 0.000134 0.000109 0.000088 0.000071 0.000055 0.000042 0.000031 0.000021 0.000012 0.000003 -0.000006 -0.000015 -0.000024 -0.000034 -0.000045 -0.000058 -0.000073 -0.000090 -0.000110 -0.000134 -0.000163 -0.000197 -0.000237 -0.000285 -0.000342 -0.000410 -0.000490 -0.000586 -0.000699 -0.000832 -0.000991 -0.001177 -0.001397 -0.001657 -0.001962 -0.002321 -0.002742 -0.003235 -0.003813 -0.004489 -0.005278 -0.006198 -0.007271 -0.008518 -0.009969 -0.011652 -0.013604 -0.015863 -0.018477 -0.021495 -0.024977 -0.028988 -0.033604 -0.038909 -0.044998 -0.051979 -0.059971 -0.069111 -0.079549 -0.091456 -0.105022 -0.120456 -0.137996 -0.157903 -0.180468 -0.206014 -0.234898 -0.267516 -0.304303 -0.345739 -0.392354 -0.444728 -0.503498 -0.569361 -0.643079 -0.725484 -0.817481 -0.920056 -1.034279 -1.161310 -1.302402 -1.458912 -1.632299 -1.824137 -2.036113 -2.270039 -2.527853 -2.811623 -3.123557 -3.466002 -3.841450 -4.252543 -4.702072 -5.192985 -5.728382 -6.311521 -6.945818 -7.634842 -8.382315 -9.192112 -10.068251 -11.014892 -12.036326 -13.136970 -14.321355 -15.594113 -16.959969 -18.423716 -19.990210 -21.664342 -23.451022 -25.355156 -27.381620 -29.535240 -31.820758 -34.242808 -36.805883 -39.514304 -42.372190 -45.383421 -48.551605 -51.880040 -55.371655 -59.028763 -62.851403 -66.819473 -70.794669 -73.597291 -74.701447 9.084854 9.016122 8.723015 8.129631 7.397018 6.640643 5.926488 5.274331 4.686141 4.158284 3.685723 3.263327 2.886248 2.550016 2.250548 1.984124 1.747364 1.537203 1.350864 1.185832 1.039837 0.910829 0.796962 0.696573 0.608168 0.530404 0.462079 0.402116 0.349552 0.303526 0.263272 0.228106 0.197420 0.170674 0.147389 0.127141 0.109553 0.094294 0.081071 0.069625 0.059729 0.051182 0.043810 0.037458 0.031992 0.027292 0.023258 0.019797 0.016833 0.014296 0.012128 0.010278 0.008700 0.007356 0.006212 0.005241 0.004416 0.003717 0.003125 0.002625 0.002202 0.001845 0.001544 0.001291 0.001078 0.000899 0.000749 0.000623 0.000518 0.000429 0.000356 0.000294 0.000243 0.000200 0.000164 0.000134 0.000109 0.000088 0.000071 0.000056 0.000043 0.000031 0.000021 0.000012 0.000003 -0.000006 -0.000015 -0.000024 -0.000034 -0.000045 -0.000058 -0.000073 -0.000090 -0.000111 -0.000135 -0.000163 -0.000197 -0.000238 -0.000286 -0.000343 -0.000411 -0.000491 -0.000587 -0.000700 -0.000834 -0.000992 -0.001179 -0.001399 -0.001659 -0.001964 -0.002324 -0.002745 -0.003239 -0.003817 -0.004494 -0.005284 -0.006205 -0.007278 -0.008528 -0.009979 -0.011664 -0.013618 -0.015879 -0.018495 -0.021516 -0.025001 -0.029016 -0.033635 -0.038945 -0.045039 -0.052025 -0.060023 -0.069170 -0.079616 -0.091532 -0.105107 -0.120552 -0.138104 -0.158024 -0.180603 -0.206166 -0.235068 -0.267706 -0.304514 -0.345975 -0.392617 -0.445020 -0.503822 -0.569719 -0.643475 -0.725921 -0.817963 -0.920587 -1.034863 -1.161951 -1.303105 -1.459681 -1.633140 -1.825055 -2.037114 -2.271128 -2.529036 -2.812907 -3.124948 -3.467507 -3.843076 -4.254296 -4.703960 -5.195014 -5.730559 -6.313855 -6.948315 -7.637508 -8.385159 -9.195139 -10.071468 -11.018305 -12.039941 -13.140792 -14.325388 -15.598363 -16.964437 -18.428407 -19.995125 -21.669481 -23.456386 -25.360742 -27.387428 -29.541265 -31.826995 -34.249248 -36.812515 -39.521106 -42.379107 -45.390297 -48.557959 -51.884340 -55.368983 -59.003445 -62.754839 -66.518822 -70.012202 -72.777565 -74.176511 -74.540836 -74.992861 -78.463921 -84.750444 -90.781557 -96.755076 -102.825560 -109.028100 -115.368960 -121.845145 -128.450468 -135.177375 -142.017522 -148.961961 -156.001215 -163.125318 -170.323849 -177.585955 -184.900390 -192.255536 -199.639444 -207.039871 -214.444323 -221.840116 -229.214449 -236.554504 -243.847564 -251.081165 -258.243222 -265.322095 -272.306438 -279.184633 -285.943498 -292.566021 -299.028048 -305.294512 -311.316786 -317.034022 -322.381759 -327.308509 -331.792532 -335.835174 -339.389833 -342.185281 -343.438892 -341.513746 -333.643572 -316.372489 -286.726340 -242.254093 -170.145882 -174.155459 -251.101600 -220.297163 -427.672281 -490.263696 -621.174214 -585.625966 -500.295195 -526.153343 -565.754692 -605.376710 -638.891851 -634.901497 -601.182808 -594.852266 -575.615846 -425.173587 -203.861594 -270.710741 -561.829604 -789.610565 -747.584778 -384.405944 -295.782505 -996.227999 -2098.096016 -2860.393030 -2986.723763 -2455.475840 -1309.908397 -907.150860 -1244.154748 -1528.467426 -1357.618087 -933.699894 228.206473 782.570947 612.509678 681.685582 962.227168 1163.640694 1349.475781 1892.937694 2817.087958 3775.242047 5107.685773 5998.452806 6471.043489 6450.199006 6240.980088 5981.976096 -74.701447 -76.199334 -79.850631 -85.201281 -90.899109 -96.785417 -102.830034 -109.024969 -115.363728 -121.839510 -128.444966 -135.172188 -142.012723 -148.957587 -155.997293 -163.121871 -170.320895 -177.583515 -184.898479 -192.254170 -199.638638 -207.039635 -214.444667 -221.841045 -229.215965 -236.556602 -243.850233 -251.084387 -258.246976 -265.326362 -272.311225 -279.190001 -285.949610 -292.573195 -299.036791 -305.305481 -311.330615 -317.050978 -322.401296 -327.329105 -331.812558 -335.855804 -339.420396 -342.249505 -343.580688 -341.808333 -334.200210 -317.173858 -287.939032 -246.101240 -187.024958 -136.357034 -207.058582 -315.734383 -377.862899 -471.058754 -528.898221 -471.278630 -436.029281 -483.080985 -544.320240 -586.512328 -634.070669 -687.211277 -702.756196 -688.565492 -632.237766 -486.491698 -330.945518 -366.410101 -628.510126 -821.287537 -606.496241 -283.692032 -370.150747 -799.500488 -1398.102180 -1932.781105 -1949.926108 -1435.740790 -949.140545 -880.187098 -1053.652524 -1202.643436 -1103.966320 -698.425139 -154.834492 48.142168 273.693809 626.717811 891.041233 1124.213603 1318.898509 1714.973098 2478.096037 3425.927131 4511.540016 5362.224182 5769.615179 5813.872266 5703.753028 5645.084717 5674.725367 -74.540836 -75.081381 -76.993113 -80.709152 -85.543397 -91.020235 -96.828570 -102.848113 -109.035024 -115.371085 -121.845798 -128.450668 -135.177437 -142.017541 -148.961967 -156.001217 -163.125319 -170.323849 -177.585955 -184.900390 -192.255536 -199.639444 -207.039871 -214.444323 -221.840116 -229.214449 -236.554504 -243.847564 -251.081165 -258.243222 -265.322095 -272.306438 -279.184633 -285.943498 -292.566021 -299.028048 -305.294512 -311.316786 -317.034026 -322.381778 -327.308578 -331.792752 -335.835821 -339.391666 -342.190475 -343.457622 -341.590526 -333.885805 -316.808101 -287.943767 -248.407312 -201.274091 -151.352333 -142.194649 -222.523392 -333.377096 -433.738822 -456.175871 -426.109098 -417.896483 -460.127715 -521.818167 -569.685535 -619.588500 -691.835273 -742.216520 -729.393873 -646.701848 -507.011645 -370.659443 -349.823371 -466.162957 -518.850924 -343.826874 -178.215208 -293.200268 -639.173747 -1091.216195 -1452.505685 -1484.532747 -1219.546694 -976.272750 -907.289644 -950.212402 -1000.323001 -940.184885 -746.953174 -456.997245 -174.601827 187.059114 547.320875 819.224492 1048.301455 1303.386299 1763.066818 2460.196824 3325.308356 4237.972809 4966.205828 5319.631592 5392.774909 5382.182357 5462.508522 5592.546806 5632.161842 3609.615298 1228.210997 1630.470943 2125.462067 3146.811049 285.786430 3411.917547 1298.120795 1775.017599 746.182190 1261.607187 1170.042768 3719.470103 3389.777594 5777.331155 1319.074446 5394.072696 6294.018996 7109.066394 7214.624407 2948.364911 -1256.564159 2767.306342 5965.460240 2768.656823 2388.289514 1290.392490 -13539.809740 2026.495105 4802.765850 1836.263101 3556.645362 4295.052722 1969.298993 3287.449826 6772.467060 3406.453521 2903.433489 6553.153476 7013.020638 8981.772304 906.525302 1706.564699 2943.971221 4966.109985 4457.739256 6899.170866 3763.385404 4395.356383 4353.888322 4167.459245 1904.092970 -14682.317525 5521.085434 5474.902817 7148.003363 4516.168636 6261.716518 7315.894107 6805.887776 5243.917051 5737.367866 -2230.567245 3314.737940 3359.013361 3380.907794 6610.782467 2666.814685 1647.135479 4203.645647 7389.706758 -2359.236563 3162.219935 2655.145525 4933.333304 5530.216846 4801.905755 7070.970182 6825.185240 6502.049349 -1727.357307 -5293.817802 64.052736 4403.186909 -14057.308062 5397.287601 -25352.175731 658.947093 6634.271092 1285.287100 4264.098622 4462.940712 5285.471150 1462.378301 5891.622503 6934.612458 4204.571898 4619.865182 5296.173756 5784.664029 4053.396320 5942.606882 -16124.045047 7715.044497 4707.448820 -241.454916 8239.144159 -7544.993435 2654.971309 4261.299308 3216.072073 4951.956637 5954.905224 4530.382911 -4295.623175 6172.169887 891.548728 2296.262788 7107.253095 3743.873263 -14852.215588 2557.777380 6629.109076 6073.064762 5625.097087 -2.550854 8163.320968 2917.974085 -22167.217782 -26528.709580 140.904812 3702.703744 5568.693454 6730.157600 -23439.808173 -27166.903772 3563.755091 4323.786118 4272.584323 6629.517347 -17717.743994 2231.430912 -16153.936998 9134.442222 6818.146245 -1001.932084 -3599.100737 8643.725829 6473.883138 -19895.834163 4201.446788 1046.259441 3901.756827 -18153.353182 4195.588346 4551.990298 -25835.679146 4644.229140 -8066.365720 2505.224783 7695.221064 6555.730456 6634.761292 -25079.434593 -24529.461797 4688.818069 8762.028090 -24028.395350 4458.864512 4734.963916 -20919.554907 -5515.144189 952.346253 8964.123463 4781.391831 -14727.910680 1026.344989 4608.441841 5595.856517 5440.484908 3793.076101 9962.339467 5147.446456 9502.801500 2754.921704 -26493.067000 -7938.271982 -9732.513783 6785.905581 9078.571158 -2403.780816 -11.364960 8640.042702 -13947.815331 6559.909717 2163.925228 3701.759513 2884.276998 9670.827052 4708.957405 -566.181854 5061.324515 5859.082262 8280.918094 6374.925665 7524.256534 1267.609722 7671.214431 -121.067251 -23294.389042 8047.367314 9464.939879 5073.402365 11011.111831 9126.333403 -18238.473385 4354.552115 5786.490307 5551.173342 9647.845952 8031.809676 3265.453064 -22378.290974 9553.270970 2515.800162 5803.034105 7528.863839 5960.263094 8183.565032 10521.765333 8965.261171 2290.092612 7118.121398 6400.628650 9408.207492 7829.143443 -9972.234636 1764.584652 8131.241674 3743.128668 -17826.230418 10024.233107 6419.946567 5030.175420 6124.731725 -11437.259784 9669.381108 8621.302706 9045.374786 7146.429102 7417.612887 8738.601798 7387.797016 7601.637736 8416.861358 7468.839479 3140.691423 10911.508544 10608.951749 8195.942892 6043.355072 6595.627886 7492.890031 8132.598603 5133.914022 7767.287530 9747.641830 7177.205770 7636.844539 9532.723076 4192.632889 7898.839935 9088.307983 9691.471197 8232.441177 6396.822766 10008.303984 10661.761816 -2530.679575 8889.751828 7398.569876 10462.864694 6763.852799 8503.920240 10253.594979 5713.543352 10538.253067 6839.288346 8622.713830 6880.882342 7866.070592 7071.650828 7836.194321 9203.253851 6194.803996 9420.316314 11384.816430 10671.574394 10129.493087 10380.485973 7665.981930 7499.253804 6372.944134 9479.237254 7288.772481 6927.464266 9490.174089 7372.189146 7666.709206 8564.408659 9731.357613 11093.760066 -3339.982540 6576.421501 6238.520861 6976.375821 9153.469381 6223.404689 7318.946704 11037.213085 7203.512999 9274.820471 11634.025514 7696.774995 7834.593710 -2245.166460 7976.890359 7480.031109 9432.279541 8693.114714 11713.512359 10685.931573 12993.775927 8818.916494 7826.553921 10981.249471 5790.061355 1382.943466 -17578.781492 -20115.373254 7465.171015 7438.060951 4539.205817 5966.625363 5342.206375 7568.943584 13508.849435 11091.977673 10570.800565 10302.791493 8065.361176 10553.076819 8447.963853 12603.263828 11203.573920 11165.729813 5098.296964 11883.765454 10628.128174 -8383.233111 8033.225352 13091.866086 7732.010089 11085.701234 12409.418104 11466.699007 11485.109432 12586.289232 10486.349271 6001.608098 7754.046725 13121.775774 10017.759280 11825.724284 7590.369366 9485.472527 11279.996966 8038.663130 10071.236243 8172.419946 9227.626778 7633.914844 11626.765918 11373.453429 10304.551234 8155.579059 8780.078461 7196.349181 6235.724849 11118.560089 13301.174771 9446.317959 9912.411473 12026.977621 12174.564838 10730.935068 8773.031568 8763.288656 -17730.640730 -2252.550434 8280.996308 5317.750315 11778.565697 9557.520001 7133.819481 10984.857086 12304.973390 7903.055238 8626.187246 8172.833536 10054.277546 7592.592789 12014.334642 8507.959926 11028.212069 11407.568899 12094.430498 11089.428951 9050.131169 7556.585764 11201.021629 7134.631963 10916.754130 5047.370684 5988.653040 8772.416524 9840.653638 7501.084234 9603.220635 8537.296332 8698.240758 9085.631733 6800.505061 11877.464808 10326.059302 11852.853663 11047.704158 9487.357343 11413.090818 -2172.913646 7528.361274 4865.805253 7412.019514 5304.540300 7904.460872 6925.090299 6645.155624 9958.744278 4600.614874 6747.610947 12559.118027 6573.592323 9620.566906 12387.257325 8547.994907 12157.663785 12007.455975 11272.640011 2711.588234 12032.727474 8696.281064 7303.258799 6868.869340 5006.810832 7693.835153 5778.370901 7725.720387 10094.206864 10008.719246 5702.185338 7794.493915 7848.172314 12281.556996 10041.608410 11023.866676 12557.741021 7268.806036 12332.606504 9058.510029 5254.830250 7406.871834 12246.712806 7105.622372 7405.641821 11548.277368 5621.705837 11460.740671 8266.166659 9132.163435 10559.616657 10814.138699 9789.880099 10852.085876 11902.978291 12792.569670 11244.570049 11899.755294 13030.866099 7433.996720 10983.174232 6324.849415 9626.396914 10467.606970 10553.092723 7678.430981 10967.377514 8582.626715 12380.756673 8552.202700 12228.504413 11767.501465 9656.034454 12039.099162 10990.496580 10448.103868 7954.421290 11726.427778 8908.819667 9977.374735 10333.401792 12769.177507 12136.143683 6028.611228 10935.525533 5943.465692 8631.789805 9928.056636 5430.165119 10696.703964 11132.365314 12231.368249 8543.787636 10727.258103 11762.585732 10275.152229 11059.048600 12346.937295 10783.214689 8486.164782 6249.335273 7264.227899 5937.356602 6981.625636 8071.658888 5984.832131 6873.756896 9078.076583 9357.498410 12799.570719 10603.748940 10852.431353 7864.664031 7230.867251 11755.282931 12027.398414 13433.653914 11661.528510 11742.742577 9508.745182 9912.000339 5512.623353 4871.245041 3912.710156 7905.634433 10307.372805 8083.774243 8050.816557 9048.328590 5398.269126 12398.523996 6395.427310 12052.356834 12730.839775 12228.364012 11348.470236 13112.145572 12262.048798 12769.368785 11390.569902 12402.174195 2258.023032 5115.788691 2948.094412 5748.106759 9286.620556 9028.890939 6766.701493 7704.070921 7197.029528 6391.296384 9768.121823 10566.815724 6230.987660 9806.374716 11711.406876 12153.312264 11217.148382 10751.906036 13134.607240 8970.020091 2098.298360 2438.686941 2062.662467 4104.555716 3494.094979 5911.471736 7191.960614 10853.579466 5241.824929 7011.739810 6393.181915 6825.508848 9687.927130 7470.623523 11952.425880 12719.879219 9046.139708 12604.896265 9580.576604 12751.440773 2549.736603 4747.830093 2083.833727 2006.584527 7972.970719 3603.367079 6178.608933 6504.468109 5367.505498 7556.087663 4607.840166 7526.989259 5932.185091 13030.545610 8002.560962 12645.110059 10463.696343 13160.748159 9176.887802 11653.753975 2524.233578 2298.078864 2134.982557 2145.717930 2058.060236 3973.428913 4865.448647 5598.078613 5326.214326 6005.277719 4491.479916 7064.008440 13389.045659 6853.492166 8300.889148 11703.199411 10407.705064 8904.158521 10203.000504 9236.876750 2018.474345 2622.501726 3325.419128 1863.570479 2574.524942 4413.112553 3959.986076 4236.852496 5516.817620 4264.307496 6827.446608 6938.857103 6355.097204 6508.025407 10564.909962 8286.474645 8829.402491 12314.506609 9703.848730 9627.470393 3543.448268 2014.209613 2087.231623 2109.414249 3560.343512 3145.805220 4450.702501 6927.072138 5793.286825 6024.209249 7344.675140 8749.604469 8412.231822 10959.580633 11995.757952 13360.546486 12739.013772 12874.429470 10156.214286 10436.309139 91.489229 3279.853429 2882.691850 2941.234307 1930.855370 1897.718085 2213.849270 3714.698382 3742.635982 3444.480762 9716.459253 5740.106434 9591.570355 6664.355253 8877.756268 12101.196408