<VTKFile type="PolyData">
<PolyData>
<Piece NumberOfPoints="6715" NumberOfVerts="6715" NumberOfLines="0" NumberOfStrips="0" NumberOfPolys="0">
<PointData>
<DataArray type="Float64" Name="Pressure" format="ascii">
 6395.823791 6803.052721 7072.572442 6872.468390 6548.534337 6084.221346 5935.669308 5886.090986 5127.501333 4184.815818 3264.100075 1712.829454 2396.005681 12475.940997 21545.546887 17511.494902 14270.165741 8426.675428 -608.702800 -5730.064214 -3133.913748 1286.193597 3616.415914 3793.953460 3237.478994 3968.817599 5120.930246 6137.560671 6907.370851 7687.743574 8366.156120 9075.622044 9619.341887 9948.091093 10108.508127 9992.290820 9595.396513 9325.112878 9767.998682 10518.375933 11053.823750 11264.214921 11369.980938 11603.703522 12004.882124 12272.167942 12342.279518 12193.756825 12248.756964 12664.676624 13041.451632 13127.126995 13127.893500 13168.629797 13262.872636 13355.692765 13432.705689 13486.068293 13398.621518 13179.872672 13037.376693 13151.247328 13457.629464 13409.728628 13060.729921 12554.686017 12277.951156 12203.836074 12247.761099 12366.787018 12599.908021 12753.858411 12883.637149 13032.060074 13268.876567 13694.854131 14049.827202 14239.670750 14230.074201 14315.296922 14649.436585 15001.175130 15231.552600 15319.635611 15281.356598 15119.231300 15040.931810 15349.806820 15656.393267 15701.225391 15555.620446 15400.842261 15582.040394 16162.524168 16629.275510 16808.679260 16657.143652 16340.956694 16116.162835 16157.017079 16363.186824 16587.123681 16723.516135 16777.187083 16903.272473 16987.757926 17117.383387 17119.519674 17170.849442 17375.636638 17892.841814 18183.133824 17990.433326 17724.794920 17569.016303 17379.413601 17299.303148 17679.504934 18276.381881 18881.681102 19042.078858 18861.436350 18634.853641 18773.844753 19184.263787 19486.122186 19629.976753 19953.831665 20338.815451 20718.434344 21083.308735 20990.836369 20544.172900 20204.089293 20117.795948 20440.326394 21039.129373 21801.454694 22548.427892 22700.670242 22597.320600 22519.636037 22223.614304 21878.077778 21822.183211 21653.138355 21218.013862 20565.126935 19831.201314 19648.172751 20588.195510 21862.541642 22802.705563 22677.890043 22279.141953 21929.277720 21513.396194 20974.911974 20372.956015 19894.152541 19672.575851 19704.008933 19887.605854 20133.529263 20206.847967 19998.844522 19602.641982 19072.448441 18663.149328 18479.088032 18411.358921 18510.408012 18582.923403 18578.931995 18393.520693 18218.822119 18092.041753 18006.227363 17940.380229 17899.611919 17831.225039 17689.127588 17506.181816 17375.589326 17281.162490 17133.731646 16958.820669 16832.368281 16705.975809 16636.223907 16583.494598 16498.323661 16409.932790 16288.929242 16099.742997 15847.206740 15524.391088 15199.046382 14844.891047 14422.908085 14109.159909 5910.192386 6192.731822 6549.925429 6792.570736 6834.284034 6758.400091 6632.561249 6442.911505 5998.257724 4978.472015 3848.885707 2827.131860 1480.607071 758.658843 3493.538972 9072.613162 11091.132408 7402.556957 -185.698418 -4855.490086 -4972.972220 -1853.048876 663.878536 2026.645950 2598.145991 3326.323695 4434.460248 5456.436253 6197.048770 6787.278857 7470.652499 8200.130480 8870.684357 9304.144406 9517.070300 9633.092693 9661.502464 9627.944836 9732.242785 10098.305133 10584.491389 10978.547306 11187.784563 11372.719340 11663.437458 11990.981087 12252.767270 12357.431994 12321.622101 12381.362608 12608.487117 12867.643690 13017.618543 13075.412085 13130.808635 13219.838867 13325.170498 13441.707765 13478.979532 13381.356380 13261.184055 13188.349871 13236.541540 13364.764239 13330.505653 13042.625322 12689.874370 12490.889846 12437.335474 12447.286821 12523.571790 12631.451288 12751.304954 12872.214646 13027.079033 13287.393758 13684.310654 14115.974323 14363.152825 14444.093028 14552.454749 14778.008049 15049.534020 15247.451870 15323.463731 15287.513146 15220.779927 15202.263458 15373.138143 15656.926350 15728.930966 15592.534843 15528.288240 15690.740486 16034.817155 16364.931776 16524.370846 16494.474633 16347.011845 16200.344899 16208.715021 16352.577336 16515.908039 16643.860624 16740.795460 16898.212388 17091.945914 17236.711261 17359.443415 17438.653524 17611.312875 17982.015269 18181.086931 18059.293608 17777.050658 17532.317222 17457.830789 17538.364197 17880.560970 18479.923198 19048.297700 19295.824899 19213.968737 19057.048129 19186.191985 19472.604437 19726.671751 20005.275102 20330.877845 20623.643905 20847.501460 21025.514518 21006.602244 20756.936160 20547.389974 20618.463514 20931.799940 21377.022599 21887.457570 22356.965250 22595.842974 22638.802186 22567.434462 22409.497063 22247.165954 22106.896310 21870.025980 21509.371100 20986.296305 20382.130585 20161.493517 20701.906373 21568.256216 22125.058559 22142.784134 21940.127678 21666.984850 21335.292949 20889.946671 20389.495818 19984.610847 19752.344081 19732.219542 19843.327468 19896.196134 19860.429001 19648.721460 19232.156555 18712.557413 18281.861208 18098.906984 18068.777464 18085.325257 18093.543567 18038.168755 17912.250785 17778.884051 17670.126121 17604.923046 17555.866374 17500.842434 17400.344326 17257.877586 17112.569612 16996.648609 16900.828895 16790.619606 16650.221318 16509.494577 16390.325750 16307.499155 16248.824311 16173.261073 16078.251991 15937.641548 15753.497930 15514.221433 15235.400520 14922.807519 14570.695013 14219.609169 13956.463888 13803.687289 5734.334564 5835.785837 6090.149614 6420.547728 6665.370509 6784.242398 6804.350031 6760.052397 6550.999802 5976.018968 4911.592169 3673.970021 2593.143474 1418.570601 -31.387093 -767.916208 171.872573 1277.653674 -872.351618 -4616.130309 -5621.879170 -3650.847261 -1054.207564 481.303921 1287.502722 2202.595802 3397.546093 4580.634318 5530.668262 6201.061229 6785.582712 7426.265727 8096.841236 8676.600796 9065.866495 9280.703809 9419.595336 9551.608719 9688.234354 9907.968973 10219.334655 10571.821244 10872.764468 11108.064037 11363.777067 11662.388818 11952.627620 12174.956290 12289.178978 12346.246918 12453.845924 12632.207821 12817.026267 12949.587900 13028.656009 13099.079584 13176.841294 13263.612839 13345.627966 13368.507872 13312.743279 13224.828491 13181.738689 13217.474107 13269.339902 13210.386656 12992.176606 12736.707377 12564.006829 12503.728994 12512.412139 12569.111126 12655.222456 12762.192802 12880.525184 13046.406209 13315.294256 13676.732925 14046.567098 14318.307886 14476.836948 14618.509250 14821.359854 15052.269655 15228.308076 15309.544047 15306.407123 15270.800461 15305.259727 15453.670359 15641.658364 15730.850298 15700.017909 15682.254247 15802.565376 16041.721793 16276.767568 16389.850456 16380.575991 16326.386030 16290.909592 16323.401038 16422.379232 16538.692300 16648.817071 16772.405558 16928.775604 17119.262433 17282.714065 17413.996407 17527.686455 17707.832024 17951.230812 18093.153925 18027.230867 17837.281704 17660.282381 17601.918202 17741.509540 18101.899040 18621.657464 19096.565085 19332.028398 19338.081090 19310.418875 19397.833799 19604.719108 19853.186504 20116.153638 20397.926566 20669.071742 20877.696220 21029.397436 21030.954778 20907.907699 20816.015945 20910.137899 21177.349248 21554.650134 21964.554520 22311.697885 22523.241907 22629.818402 22649.314820 22589.116417 22458.070129 22263.876005 21998.300564 21636.764195 21173.645038 20740.986548 20599.729372 20893.223778 21420.508417 21799.619683 21869.088710 21725.644562 21505.932643 21219.000219 20835.175119 20409.145879 20044.832959 19819.460835 19740.725517 19751.165415 19745.557141 19645.656522 19397.482885 19001.273422 18539.870034 18144.263759 17912.102610 17840.533427 17838.210116 17835.491300 17781.858947 17679.614289 17564.344904 17467.835166 17397.464157 17342.462067 17272.863885 17174.844061 17054.685975 16929.954528 16818.853504 16718.340499 16611.784900 16489.115196 16366.107470 16261.331961 16175.463187 16099.282552 16012.920928 15902.760976 15758.946787 15573.276943 15343.716187 15074.652621 14765.749494 14438.979871 14138.479072 13895.662958 13749.005027 13694.766417 14109.159909 14353.750239 14547.414189 14488.433270 14268.651518 14078.589125 13896.022051 13605.542832 13143.571614 12530.495050 11814.135095 11065.373877 10432.524156 9907.538821 9530.691691 9263.928201 9005.339409 8843.780922 8933.254280 9323.747649 9927.912189 10968.587418 11891.878965 12144.464101 11048.168671 9087.729915 7154.083357 5581.998619 4519.413624 3863.304260 3460.944738 3194.672162 2995.259377 2828.391925 2677.482910 2534.958563 2397.721040 2264.733219 2135.830269 2011.186940 1891.083027 1775.797633 1665.560819 1560.532731 1460.797284 1366.364312 1277.176802 1193.120918 1114.037249 1039.732115 969.988172 904.573821 843.251172 785.782490 731.935146 681.485211 634.219863 589.938797 548.454840 509.593958 473.194826 439.108092 407.195475 377.328772 349.388850 323.264680 298.852434 276.054679 254.779663 234.940703 216.455673 199.246573 183.239179 168.362759 154.549848 141.736060 129.859944 118.862866 108.688903 99.284760 90.599692 82.585431 75.196116 68.388223 62.120495 56.353865 51.051387 46.178153 41.701213 37.589496 33.813719 30.346304 27.161273 24.234116 21.541542 19.060867 16.768160 14.632433 12.588257 10.568964 9.497267 13803.687289 13926.375413 14093.893291 14192.976093 14110.859798 13911.201019 13703.200564 13474.586022 13158.443930 12711.628423 12132.578969 11472.082586 10801.519921 10207.449713 9705.512994 9304.894062 8996.242971 8748.720619 8602.739188 8659.131259 9022.983514 9726.960986 10718.197468 11552.990054 11624.119275 10634.426837 8894.622041 7020.034547 5503.882499 4477.769761 3843.670440 3453.094424 3191.410271 2993.806389 2827.718605 2677.145060 2534.748604 2397.549613 2264.564479 2135.650786 2010.992869 1890.874833 1775.577767 1665.332605 1560.299749 1460.562999 1366.131855 1276.948837 1192.899592 1113.824185 1039.528449 969.794605 904.390684 843.078501 785.620088 731.782650 681.342145 634.085684 589.812931 548.336710 509.483006 473.090524 439.009954 407.103057 377.241674 349.306716 323.187193 298.779313 275.985675 254.714553 234.879287 216.397770 199.192016 183.187813 168.314441 154.504441 141.693433 129.819973 118.825430 108.653883 99.252043 90.569166 82.556988 75.169650 68.363633 62.097680 56.332731 51.031841 46.160106 41.684581 37.574198 33.799682 30.333469 27.149614 24.223714 21.532818 19.055352 16.771110 14.661715 12.716824 10.965349 9.797826 9.313970 13694.766417 13738.193904 13838.538023 13951.197923 13996.056372 13919.252928 13745.507566 13527.980059 13271.296297 12936.753255 12492.753912 11939.978999 11318.384569 10688.506402 10107.540117 9607.149151 9196.290177 8866.221958 8612.474660 8466.624895 8514.655027 8863.107423 9569.673967 10510.013116 11257.713295 11282.147269 10339.259685 8695.692159 6923.551114 5472.405381 4471.535458 3845.171571 3455.947357 3193.455223 2994.938198 2828.292176 2677.453786 2534.951365 2397.719417 2264.732847 2135.830181 2011.186920 1891.083023 1775.797632 1665.560818 1560.532731 1460.797284 1366.364312 1277.176802 1193.120918 1114.037249 1039.732115 969.988172 904.573821 843.251172 785.782490 731.935146 681.485211 634.219863 589.938797 548.454840 509.593958 473.194826 439.108092 407.195475 377.328772 349.388850 323.264680 298.852434 276.054679 254.779663 234.940703 216.455673 199.246573 183.239179 168.362759 154.549848 141.736060 129.859944 118.862866 108.688903 99.284760 90.599692 82.585431 75.196116 68.388223 62.120495 56.353865 51.051388 46.178154 41.701215 37.589501 33.813736 30.346361 27.161460 24.234726 21.543536 19.067385 16.789479 14.701895 12.820393 11.217675 10.013123 9.393425 9.213520 9.497267 8.802883 7.692601 6.796000 6.033670 5.361121 4.761548 4.225502 3.746135 3.317733 2.935241 2.594099 2.290171 2.019697 1.779264 1.565775 1.376424 1.208671 1.060220 0.928998 0.813138 0.710957 0.620943 0.541736 0.472120 0.411001 0.357405 0.310459 0.269385 0.233489 0.202155 0.174834 0.151039 0.130340 0.112353 0.096742 0.083209 0.071489 0.061353 0.052595 0.045038 0.038524 0.032916 0.028092 0.023949 0.020395 0.017348 0.014740 0.012511 0.010606 0.008982 0.007598 0.006419 0.005418 0.004568 0.003846 0.003235 0.002718 0.002281 0.001912 0.001601 0.001339 0.001119 0.000934 0.000778 0.000648 0.000538 0.000447 0.000370 0.000307 0.000253 0.000209 0.000171 0.000140 0.000114 0.000092 0.000074 0.000058 0.000045 0.000033 0.000022 0.000012 0.000003 -0.000006 -0.000015 -0.000025 -0.000035 -0.000047 -0.000060 -0.000076 -0.000094 -0.000115 -0.000140 -0.000170 -0.000205 -0.000247 -0.000297 -0.000356 -0.000426 -0.000509 -0.000608 -0.000725 -0.000863 -0.001026 -0.001219 -0.001447 -0.001714 -0.002029 -0.002399 -0.002832 -0.003341 -0.003935 -0.004630 -0.005442 -0.006388 -0.007490 -0.008771 -0.010260 -0.011987 -0.013989 -0.016305 -0.018983 -0.022074 -0.025638 -0.029743 -0.034464 -0.039888 -0.046110 -0.053241 -0.061402 -0.070731 -0.081381 -0.093524 -0.107352 -0.123080 -0.140946 -0.161215 -0.184182 -0.210172 -0.239548 -0.272708 -0.310093 -0.352187 -0.399524 -0.452689 -0.512326 -0.579136 -0.653887 -0.737417 -0.830639 -0.934543 -1.050206 -1.178794 -1.321569 -1.479893 -1.655232 -1.849165 -2.063389 -2.299720 -2.560101 -2.846609 -3.161455 -3.506991 -3.885715 -4.300270 -4.753453 -5.248210 -5.787646 -6.375018 -7.013740 -7.707378 -8.459651 -9.274428 -10.155721 -11.107679 -12.134585 -13.240841 -14.430966 -15.709574 -17.081370 -18.551130 -20.123683 -21.803897 -23.596653 -25.506828 -27.539268 -29.698764 -31.990023 -34.417642 -36.986079 -39.699624 -42.562384 -45.578298 -48.751254 -52.085567 -55.587609 -59.271298 -63.176059 -67.446547 -72.319245 -75.197600 9.313970 9.077951 8.449697 7.581384 6.762661 6.021392 5.355323 4.757901 4.222690 3.743744 3.315621 2.933351 2.592403 2.288647 2.018329 1.778037 1.564677 1.375441 1.207792 1.059435 0.928299 0.812516 0.710403 0.620451 0.541300 0.471733 0.410659 0.357103 0.310192 0.269149 0.233281 0.201972 0.174673 0.150898 0.130216 0.112245 0.096648 0.083126 0.071417 0.061290 0.052541 0.044991 0.038483 0.032880 0.028061 0.023923 0.020371 0.017328 0.014723 0.012496 0.010594 0.008971 0.007588 0.006411 0.005411 0.004562 0.003841 0.003231 0.002715 0.002278 0.001910 0.001599 0.001337 0.001117 0.000932 0.000777 0.000647 0.000538 0.000446 0.000370 0.000306 0.000253 0.000208 0.000171 0.000140 0.000114 0.000092 0.000074 0.000058 0.000044 0.000033 0.000022 0.000012 0.000003 -0.000006 -0.000015 -0.000025 -0.000035 -0.000047 -0.000060 -0.000076 -0.000094 -0.000115 -0.000140 -0.000169 -0.000205 -0.000246 -0.000296 -0.000355 -0.000425 -0.000508 -0.000607 -0.000724 -0.000862 -0.001025 -0.001218 -0.001445 -0.001712 -0.002026 -0.002396 -0.002829 -0.003337 -0.003931 -0.004625 -0.005436 -0.006381 -0.007482 -0.008762 -0.010249 -0.011975 -0.013974 -0.016289 -0.018964 -0.022052 -0.025613 -0.029715 -0.034432 -0.039851 -0.046069 -0.053194 -0.061349 -0.070671 -0.081313 -0.093447 -0.107266 -0.122983 -0.140837 -0.161092 -0.184044 -0.210018 -0.239376 -0.272516 -0.309878 -0.351948 -0.399258 -0.452395 -0.511999 -0.578774 -0.653487 -0.736976 -0.830152 -0.934007 -1.049617 -1.178148 -1.320861 -1.479117 -1.654384 -1.848241 -2.062381 -2.298623 -2.558910 -2.845317 -3.160055 -3.505478 -3.884081 -4.298509 -4.751557 -5.246173 -5.785460 -6.372676 -7.011235 -7.704703 -8.456800 -9.271393 -10.152496 -11.104259 -12.130963 -13.237014 -14.426927 -15.705321 -17.076898 -18.546437 -20.118768 -21.798758 -23.591291 -25.501244 -27.533465 -29.692745 -31.983793 -34.411206 -36.979440 -39.692778 -42.555299 -45.570841 -48.742972 -52.074948 -55.569656 -59.229368 -63.054083 -67.023662 -70.999790 -73.802875 -74.907321 9.213520 9.143917 8.847242 8.246699 7.505179 6.739475 6.016346 5.355824 4.759928 4.225006 3.745984 3.317687 2.935227 2.594095 2.290170 2.019697 1.779264 1.565775 1.376424 1.208671 1.060220 0.928998 0.813138 0.710957 0.620943 0.541736 0.472120 0.411001 0.357405 0.310459 0.269385 0.233489 0.202155 0.174834 0.151039 0.130340 0.112353 0.096742 0.083209 0.071489 0.061353 0.052595 0.045038 0.038524 0.032916 0.028092 0.023949 0.020395 0.017348 0.014740 0.012511 0.010606 0.008982 0.007598 0.006419 0.005418 0.004568 0.003846 0.003235 0.002718 0.002281 0.001912 0.001601 0.001339 0.001119 0.000934 0.000778 0.000648 0.000538 0.000447 0.000370 0.000307 0.000253 0.000209 0.000171 0.000140 0.000114 0.000092 0.000074 0.000058 0.000045 0.000033 0.000022 0.000012 0.000003 -0.000006 -0.000015 -0.000025 -0.000035 -0.000047 -0.000060 -0.000076 -0.000094 -0.000115 -0.000140 -0.000170 -0.000205 -0.000247 -0.000297 -0.000356 -0.000426 -0.000509 -0.000608 -0.000725 -0.000863 -0.001026 -0.001219 -0.001447 -0.001714 -0.002029 -0.002399 -0.002832 -0.003341 -0.003935 -0.004630 -0.005442 -0.006388 -0.007490 -0.008771 -0.010260 -0.011987 -0.013989 -0.016305 -0.018983 -0.022074 -0.025638 -0.029743 -0.034464 -0.039888 -0.046110 -0.053241 -0.061402 -0.070731 -0.081381 -0.093524 -0.107352 -0.123080 -0.140946 -0.161215 -0.184182 -0.210172 -0.239548 -0.272708 -0.310093 -0.352187 -0.399524 -0.452689 -0.512326 -0.579136 -0.653887 -0.737417 -0.830639 -0.934543 -1.050206 -1.178794 -1.321569 -1.479893 -1.655232 -1.849165 -2.063389 -2.299720 -2.560101 -2.846609 -3.161455 -3.506991 -3.885715 -4.300270 -4.753453 -5.248210 -5.787646 -6.375018 -7.013740 -7.707378 -8.459651 -9.274428 -10.155721 -11.107679 -12.134585 -13.240841 -14.430966 -15.709574 -17.081370 -18.551130 -20.123683 -21.803897 -23.596653 -25.506828 -27.539268 -29.698763 -31.990021 -34.417637 -36.986061 -39.699567 -42.562201 -45.577700 -48.749307 -52.079228 -55.566963 -59.204032 -62.957514 -66.723050 -70.217477 -72.983494 -74.382833 -74.747336 -75.197600 -78.666337 -84.948029 -90.973751 -96.941297 -103.005135 -109.200336 -115.533163 -122.000631 -128.596563 -135.313428 -142.142901 -149.076061 -156.103460 -163.215162 -170.400779 -177.649495 -184.950098 -192.291013 -199.660338 -207.045887 -214.435237 -221.815796 -229.174882 -236.499817 -243.778041 -250.997214 -258.145251 -265.210225 -272.179968 -279.041204 -285.778052 -292.369886 -298.788895 -304.998250 -310.952332 -316.600362 -321.892948 -326.786276 -331.231081 -335.126164 -338.215318 -339.921045 -339.154397 -334.205250 -322.842940 -302.879900 -276.402126 -257.756277 -264.528000 -333.159784 -396.270884 -299.011582 -268.515286 -242.695399 -376.596038 -468.156280 -500.851211 -529.917895 -551.882084 -592.557896 -616.113575 -618.376455 -598.233244 -579.118719 -529.028994 -421.872480 -343.304173 -389.385222 -540.078235 -737.399709 -897.464583 -857.317754 -917.684832 -1444.988085 -2092.610778 -2647.189651 -2687.462244 -2300.357683 -1494.326245 -1075.988887 -1123.730871 -1084.300704 -655.299731 -119.934278 1167.572030 1573.383373 1035.250986 758.241941 856.047511 1150.948895 1399.663067 2031.130522 3055.697149 4002.286612 5222.695927 6109.871462 6690.671641 6828.975977 6693.638385 6395.823791 -74.907321 -76.403965 -80.052421 -85.398653 -91.091271 -96.971651 -103.009635 -109.197235 -115.527963 -121.995026 -128.591091 -135.308270 -142.138129 -149.071714 -156.099563 -163.211738 -170.397848 -177.647075 -184.948206 -192.289664 -199.659546 -207.045662 -214.435587 -221.816726 -229.176392 -236.501902 -243.780691 -251.000415 -258.148994 -265.214517 -272.184852 -279.046792 -285.784557 -292.377639 -298.798329 -305.009805 -310.966284 -316.616645 -321.911182 -326.806373 -331.254855 -335.160112 -338.274132 -340.029965 -339.346187 -334.518305 -323.334290 -303.528836 -275.592309 -251.338173 -252.848107 -294.655142 -373.882680 -393.553310 -336.931910 -331.025022 -402.475448 -457.007277 -487.202584 -517.851000 -558.661007 -595.004358 -617.235466 -634.026915 -634.909306 -607.150646 -541.911954 -456.131190 -408.844459 -477.607706 -670.570717 -849.668530 -820.024280 -762.420256 -913.701606 -1267.559152 -1713.240812 -2046.051792 -2015.333247 -1591.222546 -1191.729482 -1062.073066 -1050.846438 -997.820512 -696.384150 -105.454466 603.954861 808.912233 695.621407 710.703383 879.177635 1136.076525 1389.699092 1895.297083 2741.195443 3699.354361 4740.892668 5583.722138 6108.255477 6334.125414 6257.217584 6060.445752 5910.192386 -74.747336 -75.287373 -77.197500 -80.910492 -85.740569 -91.212307 -97.014754 -103.027677 -109.207257 -115.535288 -122.001283 -128.596764 -135.313489 -142.142920 -149.076067 -156.103461 -163.215163 -170.400779 -177.649495 -184.950098 -192.291013 -199.660338 -207.045887 -214.435237 -221.815796 -229.174882 -236.499817 -243.778041 -250.997214 -258.145251 -265.210225 -272.179968 -279.041204 -285.778052 -292.369886 -298.788895 -304.998251 -310.952334 -316.600368 -321.892966 -326.786329 -331.231247 -335.126752 -338.217365 -339.926839 -339.168640 -334.253960 -323.026551 -303.268259 -274.809050 -247.451436 -244.327114 -275.883015 -323.903247 -359.027375 -363.145926 -379.208132 -415.071360 -452.117555 -479.716001 -509.240943 -551.533681 -593.079759 -623.250037 -639.351726 -638.358041 -609.581471 -550.461798 -482.760503 -457.014354 -520.099808 -650.511939 -744.998510 -732.062820 -712.785194 -823.249500 -1106.511247 -1475.600267 -1715.554134 -1689.927400 -1432.024746 -1161.310130 -1028.360510 -1019.964688 -960.779514 -718.678769 -285.854192 189.960476 445.268593 525.970614 650.110711 856.130200 1114.279687 1405.523989 1907.214449 2662.290263 3553.965244 4463.761066 5221.250862 5715.365580 5935.310310 5931.766944 5856.563189 5778.747879 5734.334564 2755.487706 947.807134 3055.053269 2742.341205 2702.995108 1159.474292 2410.027027 924.616272 2097.445220 762.328870 1295.661804 549.351429 3908.918519 3496.528217 5609.777315 911.422354 5035.374096 6725.030083 7172.613444 7292.766648 2765.486743 -470.434848 1920.550032 5325.737647 3085.225461 3621.065971 866.058463 17592.514850 1732.351155 4203.209300 1447.193372 3041.841720 3682.199068 1268.747713 3718.288881 6858.580747 3251.095236 2423.108077 6505.807655 6927.073939 2445.306081 859.969662 1464.362454 3548.648921 4894.912421 3883.307946 2504.527403 2604.918837 3429.044122 7886.200360 3420.699882 1822.080591 25182.271076 5402.930113 4607.729946 7128.851903 3816.682361 6094.198449 7256.032327 6815.510344 -330.537774 4835.885069 3779.523793 3355.149823 2527.194380 2786.669293 6460.835303 1793.984918 972.985817 3717.294452 7387.959245 2946.545082 3563.261689 1772.380413 4547.946216 5171.466143 4418.752487 7195.135641 6788.628560 6429.120064 2644.631332 17524.772316 2734.540177 3654.688488 19524.636696 5036.130395 25018.358407 -2504.947849 2916.449064 1201.297068 3561.531923 3583.385562 2982.683647 1511.086732 8099.255552 6832.283471 3258.679119 171.203301 5267.673379 5285.279831 3039.682961 5941.519308 26407.331824 1762.222487 4775.958133 3679.202209 8327.806304 5517.299788 2337.012475 4429.666012 3517.420012 3960.776313 5891.069994 4239.543744 15585.651386 6081.855500 645.229707 1877.042741 5547.010616 3755.532616 19269.634408 2158.252971 6744.715781 6194.161850 5573.915540 2728.098934 8287.260370 3376.295426 18218.350964 29854.372917 2670.111607 3944.525665 4478.692907 5265.101845 33505.457858 32501.683453 3919.217654 3473.033717 3601.346016 5343.502546 15080.062656 11902.785554 14182.037928 9135.251819 7049.796853 3275.025214 1211.554222 8637.329152 6558.686740 23363.896711 2544.766131 3654.735749 3936.602894 15235.916489 3206.694701 4036.196987 27285.489818 3159.518854 19795.626914 2096.105749 7768.168259 6775.514447 6848.449711 26349.826375 29822.577107 2149.616450 8747.055792 31141.077602 4369.000532 3936.983179 17693.921842 17045.527975 3702.804978 3274.949510 4032.352335 23823.696938 3298.502470 3948.689989 5251.605189 5098.369849 -5415.052340 9915.841809 5212.850860 8984.984624 3548.617719 33518.340419 7289.870711 19507.807754 7097.910389 8579.568389 3071.777275 -670.494773 8894.361053 12372.675375 6821.081127 3682.957272 -4893.133300 3050.185494 9265.283907 3759.724927 588.953572 5018.664760 5565.714079 8351.787967 6472.115530 7550.667315 107.773285 7686.570535 2874.343328 24501.339302 8234.057836 9754.194336 4585.249709 10657.394277 9174.649217 15241.110878 3859.728038 5203.901671 4400.250490 9687.639513 8067.936401 -4660.289396 17352.265617 9486.638564 3801.883582 6107.677438 7594.823712 5062.216910 8310.752650 10181.984225 8748.733585 -2654.983907 7225.648793 6656.737336 9354.231293 7835.587339 15122.822650 3103.999714 8125.958147 -5145.057791 15304.561046 9869.206229 6754.276204 4498.153133 6286.381483 10260.812575 9858.864656 8628.564743 9011.215564 7279.801744 7569.854774 8736.716092 7499.543613 7628.797499 8522.932976 7466.991637 -3549.503211 10763.263009 10530.000656 8174.284725 6357.367871 6687.701914 7531.009744 8207.763805 3875.844948 7774.109033 9077.344476 7232.227600 7608.400596 10199.192482 3265.291440 7888.327856 9325.288524 9642.882061 8233.843910 6519.776033 9965.279624 10657.162385 3222.052083 2577.766703 7563.008735 10324.156170 6810.746356 8589.637693 10233.410377 5973.318137 10590.615182 7003.833715 8527.113717 7152.564027 7947.505768 7084.822401 7948.504845 9107.249369 6391.389619 9431.144081 11324.572114 10106.894999 10050.177539 10418.756652 7683.151367 7541.728504 6235.806667 4458.525043 7447.480015 6984.267618 9421.416215 7494.091487 7752.085090 8592.498170 9611.474345 10954.364634 1750.783925 6656.925668 6508.958291 7029.595208 8627.131911 6351.276231 7296.486389 11021.575274 7268.163754 9274.073273 11500.210792 7690.218826 7948.382824 3733.580287 8077.432900 7610.029608 9374.837342 8636.636018 11461.374507 10579.775079 12606.919225 8769.579099 7847.157847 10942.003918 5164.356420 -2890.249286 15176.581572 16421.242486 7451.987272 7515.649145 4551.428085 6044.165872 5420.089888 7609.073874 13068.303022 10927.806260 10508.246177 10189.545197 8102.464589 10428.212102 8414.757493 12166.978793 11160.644581 11023.976313 4182.598136 11679.709781 10479.596336 6714.708835 7936.085253 12727.233173 7832.818680 11007.822958 12208.550696 11350.363964 11441.240653 12404.730493 10398.336567 6088.209819 7784.948853 12875.698064 9970.714395 11573.850781 7564.721396 9430.801649 11114.816997 7956.389819 10014.305899 8260.633545 9144.676578 7629.091611 11545.479370 11273.299628 10228.267379 8173.877592 8719.388220 7253.136844 6297.685507 11069.645615 13269.537739 9530.788295 9914.772477 11708.807724 12120.265853 10675.844744 8788.650138 8953.971878 15028.200477 3992.220457 8239.416252 5433.580470 11626.845371 9529.384975 7218.801298 10862.726355 12128.238669 7953.532422 8721.064569 8085.085406 9990.008776 7597.299106 11995.355521 8484.843636 11068.331548 11371.903287 11959.524013 11045.325532 9065.682898 7624.136047 11041.194873 7087.862788 10874.128266 5159.635029 6055.148276 8854.822623 9826.772658 7416.021309 9582.623754 8453.891786 8712.386357 9017.965925 6770.731643 11895.396525 10292.546178 11801.949830 11139.301509 9428.872010 10868.857540 3937.592078 7504.124059 4818.729262 7459.194556 5443.369297 7998.037722 6977.894328 6731.028823 9979.959618 4686.705431 6828.778807 12492.186145 6628.286121 9551.772352 12223.316750 8536.162704 11979.461092 11947.561163 10605.475342 2898.879243 12103.380142 8693.387113 7279.230189 6868.911929 4957.830875 7685.214476 5878.478619 7709.963523 10128.619250 10030.108377 5783.243217 7813.045790 7924.040431 12167.064897 9978.457302 11088.528938 12410.006466 7314.930944 12304.397376 8963.653133 4354.387584 7315.878855 12050.417748 7110.847311 7406.175739 11463.529263 5599.170394 11429.333843 8224.142617 9139.281579 10418.000407 10835.598197 9793.530966 10833.640761 11908.900875 12534.428708 11209.458278 11821.755273 12957.700131 7490.151199 11065.617111 6320.775523 9594.253598 10400.561580 10550.410080 7608.446247 10948.160131 8609.088005 12260.767442 8517.270631 12052.806510 11659.410866 9504.986308 11847.349131 10959.192673 10473.115071 7955.169562 11737.153209 8950.198546 9857.745139 10333.854297 12594.994376 11927.864160 6040.480218 10892.479759 5955.877892 8576.357808 9955.454564 5438.171299 10632.168708 11108.732152 11973.713496 8421.514533 10609.257874 11593.061752 10168.442703 11023.967583 12316.327166 10774.616926 8455.684917 6110.689224 7203.507295 5963.425797 6946.698466 8053.128868 6003.997477 6850.993233 9033.824170 9244.719607 12641.130953 10499.888831 10729.417539 7837.605867 7201.849223 11746.374750 11987.371912 12922.976098 11756.915160 11636.065639 10209.554988 9886.344203 5510.834209 4913.023634 3918.229164 7820.028526 10327.278921 7976.180723 8019.747672 8956.451352 5425.428750 12387.515424 6406.672782 12053.943718 12623.874877 12169.338508 11378.766534 13012.331345 12150.947591 12569.800310 11376.218427 12184.063161 2414.308313 5185.929469 2987.884280 5744.708451 9350.110866 8946.017572 6736.357422 7707.030083 7146.401077 6430.884875 9622.275591 10514.828470 6271.615180 9748.402778 11653.454791 12161.773210 11238.900867 10647.806976 13015.734270 8932.361108 2189.798422 2526.867500 2125.829696 4197.603691 3532.871936 5962.429612 7164.940795 10864.180177 5298.585156 7022.579803 6344.999086 6831.764785 9580.130503 7408.467843 11864.551840 12556.307929 8931.910065 12545.001995 9552.907797 12688.066253 2569.211719 4662.950257 1928.148049 1833.109713 7936.778020 3685.565308 6193.567993 6466.212149 5385.580240 7565.784832 4616.254802 7509.604422 5954.949450 12856.865603 7911.462814 12634.859936 10312.412561 13120.941325 9101.208019 11723.586367 2664.761811 2241.535568 2268.456909 2120.930915 2151.860898 4055.427383 4897.581200 5563.203602 5350.712231 6042.439786 4590.146385 6998.781742 13133.323428 6864.543962 8204.683810 11537.520117 10220.715060 8951.190494 10092.204287 9230.917184 2067.033312 2735.262066 3365.363605 1815.772376 2628.364349 4554.699417 3969.764372 4235.455232 5559.358517 4342.117659 6787.776532 6919.396757 6314.778686 6526.093374 10466.944461 8195.345362 8665.460248 12171.634075 10202.223633 10294.789707 3369.586234 1702.497935 2244.220016 2045.252610 3582.634899 3155.316435 4498.651899 6897.707825 5805.233725 5982.292943 7304.248214 8656.834938 8381.715438 10837.650070 11821.271362 13306.434554 12630.220333 12819.886225 9998.289819 10251.683958 490.716292 3301.375256 2924.060944 3051.489300 2008.731925 1930.996967 2218.717736 3751.975408 3769.569488 3474.666685 9581.573215 5738.010397 9447.850776 6652.764483 8752.192668 11995.762651 12539.433478 11379.589468 10086