<VTKFile type="PolyData">
<PolyData>
<Piece NumberOfPoints="6715" NumberOfVerts="6715" NumberOfLines="0" NumberOfStrips="0" NumberOfPolys="0">
<PointData>
<DataArray type="Float64" Name="Pressure" format="ascii">
 34515.860952 35064.153056 36757.812104 39556.883359 42582.978534 44643.470310 46023.562262 46505.043296 45205.436118 41870.269832 38154.790222 35393.044844 35694.062868 36325.088807 35850.886140 36781.833658 37799.968063 37396.850492 35262.261596 34779.941048 35675.031941 35327.129918 33605.978348 31130.518081 29145.653985 28685.628310 27980.847863 27074.462158 26192.482239 26251.137431 27122.514281 27449.450534 27579.478559 28317.507504 28861.675290 28529.520625 27735.993811 27534.621397 26625.729549 24156.039321 21938.369426 22216.096596 24857.325093 27082.723473 28687.864411 28260.987181 27362.299364 26150.852470 25368.702608 24589.393617 23710.808499 24105.503525 26340.300211 27127.343955 25925.102306 24657.851541 23977.308818 23569.007419 23446.815801 23702.554338 23565.821968 23470.636467 24269.576373 25900.599720 26959.018565 26673.567976 26302.041401 26678.835342 27160.340670 27025.653375 26443.650218 26221.847954 26486.215202 27048.573894 26971.596277 26087.918379 25222.659674 25694.985269 26854.882446 27278.218770 26563.411719 25719.127333 25750.010945 26525.652718 27437.367823 28327.004019 28804.201752 28771.332857 27984.090745 26487.207961 24881.059724 23873.770918 23562.661347 23557.918337 24267.746143 25388.289915 25893.111436 24707.470204 23141.875144 22261.793281 22504.697894 23635.218938 24567.906271 24481.929044 24015.181917 23667.024623 23651.841449 23492.036795 22938.586314 22417.620620 22366.907651 22663.012556 22789.636461 22960.142942 22759.501094 21945.978147 21001.722503 20017.881801 19561.631361 19554.204343 19997.129768 20720.106981 21609.174502 22297.232693 22440.680771 22009.703422 21462.885341 21312.325462 21256.815615 21014.541841 20650.549389 20622.058966 21464.401883 22705.945183 23086.626072 22323.361938 20644.337886 19779.349263 19720.497508 19881.535027 19821.489613 19710.806283 19636.265190 19397.243889 18892.730689 18325.405081 17659.195419 17131.161121 16819.088716 16696.151538 16602.897756 16229.168166 15590.931777 15061.604482 15205.523171 16040.054243 16593.481672 16520.874376 16316.760306 16153.825481 16226.231827 16445.283779 16606.241036 16603.117902 16455.041502 16166.571968 15969.952284 16002.483342 16154.907525 16233.607415 16135.548927 16039.559032 15931.134196 15592.306989 15462.553602 15782.246476 16208.041081 16476.051866 16491.384883 16110.258180 15381.416283 14751.954803 14611.960530 15022.276825 15528.666965 15694.469962 15647.153995 15716.019472 16023.029738 16401.245300 16745.011690 16880.902496 16815.599577 16452.270401 15762.674279 14932.198276 14418.197840 14112.130067 13651.670113 12616.042040 11582.692891 33754.900000 34110.173366 34921.560549 36529.414329 38696.155267 40890.173845 42233.416224 42370.794753 41759.843245 40784.643499 39524.847125 38289.289125 37365.591885 37297.968697 37092.223801 36602.057645 37276.515914 38278.752408 37706.908743 36312.037531 35990.009227 36034.708712 35056.647732 33395.512511 32070.473184 31207.599827 30595.788395 29637.107793 28500.226993 28016.877395 28498.291373 28809.640034 28335.601739 27953.013292 28426.328607 29055.618534 29077.798470 28422.392262 27855.531761 26860.968147 24936.161486 23430.346471 23541.946195 24827.847338 26189.646900 27294.223094 27908.424489 27720.119901 26724.034061 25629.660904 24289.298753 23099.159661 23253.541456 24541.369375 25282.813575 24895.538718 24193.160261 23664.813216 23332.534944 23142.334835 22931.863477 22590.648158 22385.894734 22917.176728 24118.869436 25039.476908 25148.744617 25034.938356 25452.504010 25883.371318 25703.083711 25184.800757 24669.598927 24445.751567 24421.907320 24168.049161 23412.822901 23001.725048 23826.850042 25110.189973 25666.073423 25242.470673 24501.763645 24233.859815 24852.986351 25623.065506 26173.088908 26607.586903 26464.823787 25660.157557 24368.151605 23094.278427 22277.059742 21987.755534 22059.845421 22610.751536 23604.134814 24009.845717 23156.904660 21936.258586 21245.645237 21327.105394 21956.829023 22438.416985 22330.626504 22030.970797 21920.071798 22036.223875 22010.183378 21720.312653 21405.177075 21352.848570 21633.697431 21935.934563 22223.310198 22167.264830 21474.992154 20417.708587 19453.240545 18793.299690 18603.796222 18929.861409 19569.985858 20297.402337 20806.438208 20947.579516 20772.748263 20497.110150 20359.788787 20353.319350 19958.008096 19290.606184 19251.960780 20015.044597 21029.983975 21430.598238 20875.330035 19682.376918 18763.496469 18381.523856 18269.850087 18268.261625 18252.169712 18205.632651 18043.793096 17647.590039 17174.310552 16679.973707 16215.581373 15896.936107 15793.209910 15766.032087 15531.535434 15012.653214 14582.778151 14670.013362 15178.760307 15572.732158 15596.191616 15484.256659 15477.483857 15635.314121 15863.886201 16062.145504 16114.410342 15964.280427 15704.513505 15504.967259 15478.257766 15595.096068 15705.269328 15727.827615 15687.147677 15501.691131 15215.777937 15147.273505 15402.773792 15725.634674 15837.522406 15669.066182 15266.314176 14733.446699 14285.404389 14180.362938 14493.473298 14928.283181 15107.433293 15088.136567 15109.404309 15283.935606 15545.524472 15781.501784 15865.859362 15779.605120 15396.489352 14683.901389 13964.115445 13460.405673 13029.792534 12520.798266 11817.618500 11117.320462 10687.473689 33196.367468 33469.143267 34014.709880 34897.197757 36281.050260 38032.126390 39636.436268 40493.805283 40259.469840 39345.027527 38582.057031 38391.554886 38506.448418 38448.881031 37897.317385 36938.490957 36290.680755 36875.986797 37829.817348 37702.649686 36706.512194 35943.125930 35250.236491 34020.808441 32769.244130 32336.821460 32379.887114 32018.483933 30971.252478 29787.986743 29370.226138 29594.806558 29505.109025 28891.812550 28371.553902 28608.974088 29237.896463 29365.282766 28802.146467 28106.280233 27039.986665 25591.362887 24591.899893 24405.677932 24750.725248 25565.007756 26698.351600 27482.598341 27347.851596 26619.992583 25558.428714 24225.864841 23140.835059 23006.181681 23670.968795 24161.971692 24155.854277 24069.210595 23871.942540 23415.038122 22901.495156 22509.998222 22271.244832 22214.184155 22556.181072 23246.554548 23835.646640 24016.865480 24037.830532 24358.120252 24797.591765 24798.900164 24370.084185 23805.375654 23350.884179 23025.193910 22666.598313 22162.763556 22047.604126 22880.444024 24065.170245 24642.733791 24453.144799 24039.356909 23906.675857 24202.376348 24562.787293 24821.474663 25002.427176 24890.957723 24257.737832 23182.657967 22137.231128 21496.244183 21297.038455 21426.872806 21924.271339 22609.293762 22802.786493 22253.448417 21415.198458 20874.839338 20837.003401 21115.472715 21287.836707 21170.436486 20985.348846 20984.717639 21145.265518 21174.128287 20962.414639 20716.796215 20685.318899 20911.190589 21290.705871 21677.720831 21753.716697 21295.349298 20424.059434 19456.694155 18729.992237 18510.944561 18724.903519 19156.192257 19664.843920 20031.888260 20111.551764 20000.759183 19894.081335 19776.508318 19594.052979 19204.768271 18678.157805 18577.068563 19118.687248 19887.156924 20248.179812 19931.884621 19136.829431 18331.558947 17906.372969 17735.237948 17645.780876 17546.001190 17425.899980 17173.346488 16791.174602 16381.398744 15990.974017 15639.785476 15379.734159 15252.262542 15203.096447 15060.225892 14707.513811 14370.430007 14392.661252 14707.496544 14980.802554 15047.210405 15010.152932 15044.434273 15198.067056 15417.020275 15624.042750 15707.451212 15601.507389 15402.338557 15242.390732 15200.299381 15293.215476 15441.980990 15526.623036 15489.480910 15303.787591 15087.469143 15067.566043 15286.877051 15510.646394 15473.092615 15194.092143 14818.601356 14444.465852 14152.188515 14086.828562 14298.917653 14570.433494 14663.268969 14638.154067 14638.779965 14731.396962 14887.479304 15015.985731 15057.750516 14949.686359 14584.674887 13980.937631 13365.993440 12862.451312 12419.863434 11956.719454 11422.134896 10898.293385 10587.004867 10489.312178 11582.692891 12186.809770 12562.803806 12452.930755 11916.467316 10983.390754 10113.516270 9428.698654 8725.014328 7941.266218 7135.788341 6336.103116 5763.342777 5095.432371 4132.862689 3088.798192 2219.038140 1408.818472 628.050502 -143.562108 -245.724846 6.379084 248.453115 437.115422 581.186095 678.443887 726.978150 731.733643 702.245311 649.239338 582.576902 510.260509 438.159891 370.156628 308.495936 254.195637 207.427061 167.829886 134.750759 107.410418 85.011246 66.799540 52.096141 40.306854 30.921259 23.505810 17.694860 13.181601 9.709803 7.066629 5.076455 3.595529 2.507306 1.718309 1.154447 0.757732 0.483382 0.297292 0.173857 0.094141 0.044353 0.014617 -0.002024 -0.010372 -0.013676 -0.014081 -0.012963 -0.011170 -0.009203 -0.007333 -0.005690 -0.004319 -0.003218 -0.002357 -0.001701 -0.001210 -0.000850 -0.000590 -0.000404 -0.000274 -0.000184 -0.000122 -0.000080 -0.000052 -0.000033 -0.000021 -0.000013 -0.000008 -0.000005 -0.000003 -0.000002 -0.000001 -0.000001 -0.000000 -0.000000 -0.000000 -0.000000 -0.000000 -0.000000 -0.000000 -0.000000 10687.473689 10910.638034 11106.816068 11099.747527 10839.807686 10320.595733 9611.299151 8885.720074 8226.929634 7552.970881 6807.485731 6057.219677 5418.225858 4876.561809 4218.517501 3382.802168 2547.748789 1819.893406 1168.355700 565.333189 105.639062 -17.513144 96.050704 273.611948 444.726628 585.092169 681.384252 729.250090 733.387924 703.335800 649.854592 582.820249 510.236342 437.961407 369.858996 308.154840 253.849098 207.098690 167.532474 134.489583 107.185971 84.821293 66.640541 51.964150 40.198025 30.832085 23.433208 17.636163 13.134516 9.672364 7.037149 5.053487 3.577838 2.493844 1.708195 1.146950 0.752253 0.479438 0.294498 0.171913 0.092813 0.043467 0.014040 -0.002387 -0.010591 -0.013801 -0.014146 -0.012990 -0.011176 -0.009197 -0.007321 -0.005677 -0.004307 -0.003206 -0.002348 -0.001693 -0.001204 -0.000845 -0.000586 -0.000402 -0.000272 -0.000182 -0.000121 -0.000079 -0.000052 -0.000033 -0.000021 -0.000013 -0.000008 -0.000005 -0.000003 -0.000002 -0.000001 -0.000001 -0.000000 -0.000000 -0.000000 -0.000000 -0.000000 -0.000000 -0.000000 -0.000000 -0.000000 10489.312178 10522.481855 10572.968931 10562.220505 10412.322618 10077.568869 9570.831436 8946.340340 8285.219027 7634.950273 6964.565092 6255.216255 5568.300730 4958.263649 4377.973795 3721.239023 2987.607344 2273.950906 1631.461420 1058.996869 569.563203 229.161469 104.768224 156.124780 293.049885 448.792355 584.708274 679.736918 727.459640 731.907022 702.301922 649.257308 582.582851 510.262571 438.160599 370.156861 308.496011 254.195661 207.427068 167.829888 134.750760 107.410418 85.011247 66.799540 52.096141 40.306854 30.921259 23.505810 17.694860 13.181601 9.709803 7.066629 5.076455 3.595529 2.507306 1.718309 1.154447 0.757732 0.483382 0.297292 0.173857 0.094141 0.044353 0.014617 -0.002024 -0.010372 -0.013676 -0.014081 -0.012963 -0.011170 -0.009203 -0.007333 -0.005690 -0.004319 -0.003218 -0.002357 -0.001701 -0.001210 -0.000850 -0.000590 -0.000404 -0.000274 -0.000184 -0.000122 -0.000080 -0.000052 -0.000033 -0.000021 -0.000013 -0.000008 -0.000005 -0.000003 -0.000002 -0.000001 -0.000001 -0.000000 -0.000000 -0.000000 -0.000000 -0.000000 -0.000000 -0.000000 -0.000000 -0.000000 -0.000000 -0.000000 -0.000000 -0.000000 -0.000000 -0.000000 0.000000 0.000000 0.000000 -0.000000 -0.000000 0.000000 0.000000 0.000000 -0.000000 -0.000000 0.000000 0.000000 0.000000 0.000000 0.000000 0.000000 0.000000 0.000000 0.000000 0.000000 0.000000 0.000000 0.000000 -0.000000 -0.000000 -0.000000 -0.000000 0.000000 0.000000 0.000000 -0.000000 -0.000000 0.000000 0.000000 0.000000 -0.000000 -0.000000 0.000000 -0.000000 0.000000 0.000000 0.000000 0.000000 0.000000 0.000000 0.000000 0.000000 0.000000 0.000000 0.000000 0.000000 0.000000 0.000000 0.000000 0.000000 0.000000 0.000000 0.000000 0.000000 0.000000 0.000000 0.000000 0.000000 -0.000000 0.000000 0.000000 0.000000 0.000000 0.000000 0.000000 0.000000 0.000000 0.000000 0.000000 0.000000 0.000000 0.000000 -0.000000 0.000000 0.000000 0.000000 0.000000 0.000000 0.000000 0.000000 0.000000 0.000000 0.000000 0.000000 0.000000 0.000000 0.000000 0.000000 -0.000000 0.000000 0.000000 -0.000000 0.000000 0.000000 0.000000 0.000000 -0.000000 -0.000000 -0.000000 -0.000000 -0.000000 -0.000000 -0.000000 -0.000000 -0.000000 -0.000000 -0.000000 -0.000000 -0.000000 -0.000000 -0.000000 -0.000000 -0.000000 -0.000000 -0.000000 -0.000000 -0.000000 -0.000000 -0.000000 0.000000 -0.000000 -0.000000 -0.000000 -0.000000 0.000000 0.000000 0.000000 -0.000000 0.000000 0.000000 0.000000 0.000000 -0.000000 0.000000 0.000000 0.000000 0.000000 0.000000 0.000000 0.000000 0.000000 0.000000 0.000000 0.000000 0.000000 0.000000 0.000000 0.000000 -0.000000 0.000000 0.000000 -0.000000 -0.000000 -0.000000 -0.000000 -0.000000 -0.000000 -0.000000 -0.000000 -0.000000 -0.000000 -0.000000 -0.000000 -0.000000 -0.000000 -0.000000 -0.000000 -0.000000 -0.000001 -0.000001 -0.000002 -0.000004 -0.000007 -0.000012 -0.000021 -0.000035 -0.000057 -0.000094 -0.000154 -0.000249 -0.000401 -0.000639 -0.001012 -0.001591 -0.002486 -0.003863 -0.005990 -0.009328 -0.014842 -0.024565 -0.032057 -0.000000 -0.000000 -0.000000 -0.000000 -0.000000 -0.000000 -0.000000 -0.000000 0.000000 0.000000 0.000000 0.000000 -0.000000 0.000000 0.000000 0.000000 0.000000 -0.000000 0.000000 0.000000 0.000000 0.000000 0.000000 0.000000 0.000000 0.000000 0.000000 0.000000 0.000000 0.000000 0.000000 -0.000000 0.000000 0.000000 -0.000000 0.000000 0.000000 0.000000 0.000000 -0.000000 0.000000 0.000000 0.000000 0.000000 -0.000000 0.000000 0.000000 0.000000 0.000000 0.000000 0.000000 0.000000 0.000000 0.000000 0.000000 0.000000 0.000000 0.000000 0.000000 0.000000 0.000000 0.000000 0.000000 0.000000 0.000000 0.000000 0.000000 0.000000 0.000000 -0.000000 -0.000000 0.000000 0.000000 0.000000 0.000000 -0.000000 0.000000 0.000000 0.000000 -0.000000 -0.000000 0.000000 0.000000 -0.000000 -0.000000 0.000000 0.000000 0.000000 -0.000000 0.000000 0.000000 0.000000 0.000000 -0.000000 0.000000 0.000000 0.000000 0.000000 -0.000000 -0.000000 0.000000 0.000000 0.000000 -0.000000 0.000000 0.000000 0.000000 0.000000 -0.000000 -0.000000 -0.000000 -0.000000 -0.000000 -0.000000 -0.000000 -0.000000 -0.000000 -0.000000 -0.000000 -0.000000 -0.000000 -0.000000 -0.000000 -0.000000 -0.000000 -0.000000 -0.000000 -0.000000 0.000000 -0.000000 -0.000000 -0.000000 -0.000000 0.000000 -0.000000 0.000000 0.000000 -0.000000 -0.000000 0.000000 0.000000 0.000000 -0.000000 -0.000000 0.000000 0.000000 0.000000 -0.000000 -0.000000 0.000000 0.000000 0.000000 0.000000 -0.000000 0.000000 0.000000 -0.000000 -0.000000 -0.000000 0.000000 0.000000 -0.000000 0.000000 0.000000 0.000000 -0.000000 -0.000000 -0.000000 -0.000000 -0.000000 -0.000000 -0.000000 -0.000000 -0.000000 -0.000000 -0.000000 -0.000000 -0.000000 -0.000000 -0.000001 -0.000001 -0.000002 -0.000004 -0.000007 -0.000012 -0.000021 -0.000034 -0.000057 -0.000093 -0.000152 -0.000247 -0.000397 -0.000633 -0.001002 -0.001575 -0.002457 -0.003803 -0.005843 -0.008904 -0.013399 -0.019510 -0.024353 -0.025690 -0.000000 -0.000000 -0.000000 -0.000000 -0.000000 -0.000000 -0.000000 0.000000 0.000000 0.000000 0.000000 0.000000 0.000000 0.000000 0.000000 0.000000 0.000000 0.000000 0.000000 0.000000 0.000000 0.000000 0.000000 0.000000 0.000000 0.000000 0.000000 0.000000 0.000000 0.000000 0.000000 0.000000 0.000000 0.000000 0.000000 0.000000 0.000000 0.000000 0.000000 0.000000 0.000000 0.000000 0.000000 0.000000 0.000000 0.000000 0.000000 0.000000 0.000000 0.000000 0.000000 0.000000 0.000000 0.000000 0.000000 0.000000 0.000000 0.000000 0.000000 0.000000 0.000000 0.000000 0.000000 0.000000 0.000000 0.000000 0.000000 0.000000 0.000000 0.000000 -0.000000 0.000000 0.000000 0.000000 0.000000 0.000000 0.000000 0.000000 0.000000 0.000000 0.000000 -0.000000 0.000000 0.000000 -0.000000 0.000000 0.000000 0.000000 0.000000 0.000000 0.000000 0.000000 0.000000 0.000000 -0.000000 0.000000 0.000000 0.000000 0.000000 -0.000000 -0.000000 0.000000 0.000000 0.000000 0.000000 0.000000 0.000000 0.000000 -0.000000 -0.000000 -0.000000 -0.000000 -0.000000 -0.000000 -0.000000 -0.000000 -0.000000 -0.000000 -0.000000 -0.000000 -0.000000 -0.000000 -0.000000 -0.000000 -0.000000 -0.000000 -0.000000 -0.000000 0.000000 0.000000 0.000000 -0.000000 0.000000 0.000000 0.000000 0.000000 0.000000 0.000000 0.000000 -0.000000 -0.000000 -0.000000 0.000000 0.000000 -0.000000 -0.000000 -0.000000 0.000000 0.000000 -0.000000 0.000000 0.000000 0.000000 0.000000 -0.000000 0.000000 0.000000 0.000000 -0.000000 -0.000000 0.000000 0.000000 0.000000 0.000000 0.000000 0.000000 0.000000 -0.000000 -0.000000 -0.000000 -0.000000 -0.000000 -0.000000 -0.000000 -0.000000 -0.000000 -0.000000 -0.000000 -0.000000 -0.000000 -0.000001 -0.000001 -0.000002 -0.000004 -0.000007 -0.000012 -0.000021 -0.000035 -0.000057 -0.000094 -0.000154 -0.000249 -0.000401 -0.000639 -0.001011 -0.001586 -0.002469 -0.003805 -0.005791 -0.008646 -0.012477 -0.016895 -0.020764 -0.022340 -0.022406 -0.032057 -0.054285 -0.102649 -0.163129 -0.243101 -0.352382 -0.502722 -0.709213 -0.991398 -1.374482 -1.890737 -2.581098 -3.496984 -4.702306 -6.275639 -8.312484 -10.927547 -14.256896 -18.459852 -23.720419 -30.248047 -38.277478 -48.067444 -59.897953 -74.065945 -90.879081 -110.647471 -133.673126 -160.236903 -190.582631 -224.898016 -263.291758 -305.766209 -352.184905 -402.234567 -455.382056 -510.828630 -567.467226 -623.853803 -678.211147 -728.491617 -772.531943 -808.336965 -834.532494 -850.979450 -859.328404 -862.778769 -863.746133 -861.092530 -835.051712 -726.695811 -593.441536 -549.297039 -651.246585 -749.648671 -734.772611 -797.663098 -941.341356 -947.257717 -718.632225 -711.242403 -1131.746774 -1027.553548 -77.824371 669.123929 754.710388 395.688895 247.173893 398.103336 474.526084 -308.381525 -1444.092433 -1514.195453 181.259592 3796.129195 6915.329502 8301.797782 8507.263503 7858.980037 6913.817285 7592.199861 10665.193421 14540.405245 18018.492955 19636.556948 19732.745454 19772.705416 20716.488976 23254.093703 27032.776041 30871.472926 33403.352581 33459.294477 33582.740047 34588.235843 37020.246054 38716.865747 38543.224933 37108.149480 35424.809444 34515.860952 -0.025690 -0.035691 -0.061192 -0.104554 -0.162836 -0.241956 -0.350590 -0.500217 -0.705819 -0.986864 -1.368491 -1.882895 -2.570929 -3.483920 -4.685679 -6.254675 -8.286305 -10.895175 -14.217263 -18.411823 -23.662819 -30.179706 -38.197280 -47.974391 -59.791241 -73.945046 -90.743839 -110.498205 -133.510743 -160.063024 -190.399743 -224.709641 -263.102660 -305.582639 -352.014866 -402.088066 -455.271274 -510.767845 -567.472247 -623.940578 -678.393124 -728.775527 -772.911821 -808.785888 -834.991585 -851.360532 -859.555700 -862.930640 -864.396047 -862.743568 -846.315346 -774.030897 -631.713827 -530.629312 -530.037378 -511.775222 -477.038298 -549.716627 -610.583148 -435.624640 -191.610602 -288.179996 -638.151111 -539.088056 210.141735 838.962461 811.966870 198.276890 -330.576890 -454.198243 -579.720159 -902.047968 -1158.160048 -668.220342 1196.044531 4083.722934 6495.711655 7731.444472 8213.451798 8223.504343 8125.432331 8951.380373 11379.453260 14815.067032 18093.098203 20018.204832 20702.894086 21152.620166 22039.011142 23871.338556 26750.883341 30129.139347 32509.178144 33000.759616 32977.851561 33980.715444 35899.001557 37727.082942 38412.953168 37565.185441 35916.438343 34510.602973 33754.900000 -0.022406 -0.026108 -0.039055 -0.066028 -0.106899 -0.164333 -0.243454 -0.352484 -0.502751 -0.709222 -0.991400 -1.374483 -1.890737 -2.581098 -3.496984 -4.702306 -6.275639 -8.312484 -10.927547 -14.256896 -18.459852 -23.720419 -30.248047 -38.277478 -48.067444 -59.897953 -74.065945 -90.879081 -110.647471 -133.673126 -160.236903 -190.582631 -224.898016 -263.291758 -305.766209 -352.184905 -402.234567 -455.382056 -510.828631 -567.467227 -623.853804 -678.211142 -728.491569 -772.531633 -808.334788 -834.522735 -850.963170 -859.338052 -862.985212 -864.878086 -863.495776 -849.611620 -799.613751 -684.405937 -535.229950 -427.585455 -367.618194 -337.499804 -369.140104 -380.093966 -196.993108 1.050249 -117.194542 -387.571050 -304.431289 234.942307 755.359957 678.484949 -18.750019 -668.034684 -924.924905 -1027.748611 -1085.036060 -894.550620 -72.922133 1593.633127 3789.396466 5747.853679 7051.166247 7840.098235 8391.866184 8921.113404 9888.855675 11928.832284 14919.128861 17847.803642 19840.086112 20920.978336 21809.638788 22961.850950 24628.117140 27027.142380 29794.531728 32020.936419 33347.063115 34054.767724 35003.963637 36477.663681 38093.032166 38813.942101 38091.144743 36418.662603 34670.619283 33592.392252 33196.367468 16600.653197 12838.254298 16881.131241 17277.787689 19761.581872 18581.263255 23039.893514 25507.018851 29766.523360 27927.910231 33431.806925 35042.720604 31872.969103 36110.840389 39608.376748 43679.877446 42106.535360 38985.140265 37829.633053 35152.169948 23648.219444 18527.356853 18367.860810 12053.353772 28927.072076 24326.049501 20010.254533 24040.611165 28028.571263 39486.613972 25388.840780 35333.053556 40224.386962 35689.024537 37619.273257 42390.465671 42803.309227 43653.239568 36448.823135 39312.792979 17417.757683 23944.485595 17813.666851 23183.277557 19749.467333 32689.182853 19884.025434 17961.325093 14829.861121 30580.712222 35599.108937 36296.166107 23976.508963 40888.279343 43741.959739 38121.552744 45168.665439 43849.060618 36720.814515 44351.614476 22132.107610 15955.104641 57465.213089 18760.764406 22581.540737 7926.090416 32501.153416 21017.476788 35386.500209 36407.683124 39876.220296 27861.560756 26889.322147 24887.287898 47048.445818 40699.971986 25099.429377 45536.401783 44452.869900 43535.057079 -5478.663162 7991.459311 23870.059527 14771.084833 12920.284224 16631.628184 102403.792516 55795.744659 25379.287872 31164.270487 20634.880764 17231.093083 18476.375141 45466.459047 23031.328077 42583.311176 39622.330702 8541.838323 48043.228599 47579.056063 4017.414997 29705.692082 8795.120307 14366.600926 50256.743929 -412.136857 16506.984270 9224.730214 20922.209131 30989.179906 16523.844208 33752.932016 45969.921151 17521.576564 36207.514103 47190.091200 39638.700073 45309.248169 44906.261544 44436.416862 8280.040716 20813.405076 14544.780058 19011.014976 22521.723127 43995.345566 15745.423464 15482.591153 18755.262738 19128.689521 13192.556710 17633.115549 16874.371594 28134.507425 1935.622818 19304.434554 39865.824242 41935.116493 48481.017107 48852.564824 57865.948375 19092.840384 13905.360311 25017.074278 22194.248596 92013.824651 15314.452637 -6466.639139 21046.466226 24038.325260 16995.505701 17499.789685 40620.261263 18096.383198 29271.577737 33193.231580 22934.584798 33620.971348 33180.001697 24252.955948 23529.426727 -9779.018767 20286.036130 14393.333802 70009.117151 16687.035136 18937.001362 18374.833842 42313.865005 16075.823586 14121.059653 19121.656492 30172.198721 19112.174165 19999.031085 20912.354550 -5122.991867 39334.344666 26877.707514 36615.857094 -7825.710115 27318.581619 9687.583045 33207.149226 9899.119692 98799.963039 -3235.859389 46917.145930 16125.807483 15577.870468 96808.738806 98348.809898 17378.566817 25217.690107 17020.349212 33524.305911 -3467.272011 36341.228206 29167.372860 32277.707625 11467.768292 79043.655143 52951.838050 11472.945328 31236.857499 8806.791628 -10037.131365 25347.929415 37785.508010 3284.300772 29289.974669 32506.751558 22039.928910 30702.650477 28184.912931 28998.699383 20978.754289 13988.778643 11496.404762 30042.197957 10595.725093 22197.684507 98754.672914 23853.825203 51405.427625 12143.966016 24697.070392 21335.146556 35189.610518 29048.044608 29078.438338 23384.725793 28724.070290 17185.470074 27810.025647 30584.494861 36794.640013 13489.295580 29361.590953 26229.231708 71623.533708 20670.441680 29413.102642 17059.633898 19682.261939 87170.074129 2822.784274 13818.284209 -2677.723132 16204.756138 19179.040866 35553.807618 -743.442455 25397.193093 29127.053534 22525.112975 23688.809861 34593.401826 23009.280709 32393.471839 15093.084820 20591.784410 15156.380719 8923.905721 8607.420928 28109.948842 27558.530647 35148.617770 -6186.702882 18165.546911 -5343.156674 12477.151627 18231.267739 24908.348762 11723.889480 29414.704934 28995.912651 25117.876811 4267.431654 33267.829920 20707.846266 11461.496407 8587.576363 2826.683808 11448.015283 11605.933230 15615.551141 8839.642144 9921.187442 3069.465915 34426.241598 31516.974636 35974.574481 26652.102996 32253.718034 23775.339299 19578.451254 23344.964867 21018.765948 30007.619521 8886.280601 3012.677923 11091.850631 -532.271095 27937.951519 18913.892139 22177.084837 16109.017582 15672.286673 9277.102666 18493.545680 17404.755174 -1521.389839 19658.092778 29251.405747 24875.519158 30736.260040 26118.739000 29734.316238 30837.805386 10944.165935 27202.525691 12253.993847 16498.819606 6027.999099 76151.202633 24156.041312 5581.731767 21902.874727 25357.364285 26193.413462 14647.167628 22863.638341 23432.191553 28736.736144 24272.663879 28620.060664 34107.750300 27853.358229 31141.700663 15376.702532 18202.527553 9492.694024 8398.453303 18929.215899 15121.813759 11936.246932 8550.911936 24324.300279 14187.096387 16110.069394 23276.022058 28926.333225 26627.595662 24564.546338 23298.338920 28487.963591 22575.796044 34251.898560 33451.303968 13436.188725 15773.309882 13570.287562 12464.234369 16187.317521 17295.646759 20325.900988 19808.950630 20962.440974 15842.010552 21642.337039 19915.699860 19632.867746 22563.672346 17902.861816 24031.936794 21174.411734 26881.014480 25363.691306 28688.116989 13442.302651 13162.084067 10310.410615 12153.107426 17573.874727 16712.700747 14788.718254 17234.194403 12521.668374 18131.301445 19697.068953 20943.728082 21586.530854 26971.735270 24786.992377 22306.190565 19690.409811 31383.130351 30056.458584 32309.331162 12878.073253 16495.040794 14215.449148 13460.957923 17768.420769 13536.299423 17913.601276 18677.186208 16362.663093 18060.628919 19003.331283 19066.184388 19139.643715 25696.323231 22706.255335 26016.680010 26620.702786 23347.939400 20234.353741 32608.541531 13208.817977 15649.507676 13063.092598 13448.945385 16725.425560 15321.184458 17912.641476 14523.736457 18276.689597 17657.007653 18678.796022 15583.769037 18446.262224 21155.017888 21179.019681 23479.562580 23415.682521 22797.737997 27923.928119 32338.830999 15451.810554 12853.345832 14135.283096 16642.244853 15053.795695 16610.375750 16010.561363 17444.478677 15279.828348 17881.955999 18776.841462 19630.857322 18154.328627 20374.754733 19377.491932 22536.553630 23286.970855 24174.948860 28108.235117 27492.947622 14365.192004 15263.909985 17218.070770 11607.093563 12847.441957 14315.235110 16352.195636 16912.699048 17066.702748 18406.896282 16934.145443 17670.267958 22974.697403 17213.211031 19715.702688 20358.316903 24172.257579 22420.853393 26695.967873 27768.651621 15181.090639 14233.793250 13497.468693 13486.665432 14877.006636 16072.213128 17072.153547 16642.459843 17698.058805 16744.808583 17551.986558 19415.303476 17964.545110 24482.135119 20040.278659 26636.981034 21251.398360 21226.302707 24874.391129 28643.819365 14119.748807 17757.836602 18667.383490 15522.539973 18964.868396 16745.790430 15992.735471 18394.275409 14967.590121 17211.704157 17051.362885 23933.108627 21006.544920 20175.278130 23948.503346 21027.175559 20357.229839 22009.546865 25923.439642 27028.225499 17041.495427 15124.159435 12837.398859 13939.168456 8392.332333 18503.887472 15562.147726 19561.498430 22823.360995 17891.927852 21785.054250 23142.892103 18906.136531 20396.779410 23392.415771 26688.740110 24856.922334 28346.741290 25657.571168 26748.213887 11351.262694 7558.846104 14211.306580 13192.854025 9182.768978 11297.081334 17416.762526 22301.709157 16440.062954 23736.482702 19290.943159 23727.962825 20381.516853 18942.517398 20153.767662 26996.282181 21997.589603 22045.798558 28281.372779 20984.879962 6088.731700 9759.676961 4468.668676 14564.249539 15573.532312 17091.610825 19300.257142 17340.641737 14120.525462 20379.708556 16563.427808 18622.062348 24949.077358 22603.211886 23000.948140 26265.257642 24658.193627 24562.997113 23445.592972 23801.674313 -409.690683 6579.594924 7073.804815 9725.991598 12160.334385 13956.633004 10527.349491 12023.711389 16688.329958 23217.457935 14305.297629 21651.088439 22467.475633 25186.510094 25560.958804 22656.087856 21051.381714 27586.406641 20901.516749 27103.811747 353.300573 4565.535244 577.425807 7723.522715 8981.786618 10573.851851 11079.773788 12990.648319 11079.465467 20994.294160 20661.577001 21544.240161 20540.180903 22926.516515 24507.759808 24242.077617 24584.263177 25430.541639 27448.036135 24676.700805 1466.670671 1697.118596 1964.514383 3374.720759 6402.679868 6456.783788 13176.736551 7823.091737 12450.633137 16820.422025 13652.785474 14245.670908 15029.498154 24153.735921 23474.353520 23259.820159 25119.739011 22319.690782 25612.386371 24050.313359 1064.951280 708.251672 1064.740492 3028.486284 3829.478970 10223.925274 6545.628825 9749.293068 12454.689401 14488.584773 14250.153130 16590.864080 23385.427192 22516.144551 22120.014624 25393.098950 24359.460759 21453.093723 28424.625337 19934.401658 755.691426 4447.714445 1941.774345 2784.578557 4752.387602 8091.591700 9292.348870 11962.128322 11131.344401 11545.340722 13615.038297 19019.552836 19070.935496 20949.007804 23112.898505 22736.559711 24451.580940 23042.774021 27726.190035 28148.761387 1092.963297 56.883117 652.817868 3198.159350 4662.304439 9954.936337 7633.214574 7083.994483 14854.959710 16034.881967 19543.807968 21058.637967 19475.308660 22936.855652 22750.967778 23919.749048 24482.120052 26537.558992 23505.481417 24195.038708 483.514276 1404.969685 1745.899890 4032.427357 5169.671520 8584.657621 9481.510623 9160.305406 9573.442024 12092.215409 15586.175059 18771.581263 20228.276864 18312.204054 21426.737746 24173.915584 25829.561291 25975.147082