<VTKFile type="PolyData">
<PolyData>
<Piece NumberOfPoints="6715" NumberOfVerts="6715" NumberOfLines="0" NumberOfStrips="0" NumberOfPolys="0">
<PointData>
<DataArray type="Float64" Name="Pressure" format="ascii">
 3263.437585 1476.192920 124.670269 219.488305 651.822012 1448.529073 2502.523926 3535.783807 3721.627545 3449.561546 2924.287505 1777.001629 2093.253889 4821.722104 4791.194077 6912.431058 21637.595284 27923.154409 9900.530763 -15350.334462 -15409.625041 -1448.473703 8165.839792 6533.655191 3292.328346 3298.638981 5355.339039 6962.172186 7671.708817 8258.884810 8857.682515 9246.428577 9561.742475 9567.760459 9666.982382 10102.437250 10700.067230 11044.228489 11152.001361 11492.270404 12529.850415 13480.875261 14377.023645 15003.958619 15040.130248 15349.053061 15727.988902 15799.626419 15576.114215 15341.322845 15997.071907 16837.678524 17568.372588 18288.751057 18702.432530 18382.950389 17425.757649 17039.904356 17602.063006 17877.806743 17799.554166 17943.726938 18208.320190 18353.394365 18372.121008 18440.187188 18548.352126 18593.442673 18509.174331 18892.117182 19389.451762 19341.428767 18791.511330 18290.931957 18436.160186 18473.558822 18489.221640 18766.295561 19210.872535 19749.073220 20126.699528 20310.467610 20766.038789 21325.836654 21512.801786 21546.102157 21629.384780 21485.843621 21680.732327 21762.478115 22141.141430 23040.530232 23805.275941 23853.872041 23233.023593 22751.552157 22579.324021 22392.532053 22424.628901 22249.061301 22388.194083 22649.951658 22955.505515 23062.983037 23195.444216 23481.393131 23930.889727 24756.811696 26038.909840 26367.617868 25264.761165 23864.877425 22919.718743 22458.002010 22424.344909 22413.165684 22470.654796 22500.531595 22243.729270 21775.455465 21505.823129 21629.503613 22074.997513 22730.501431 22999.822343 22655.849011 21898.456164 21993.089026 22381.694152 22296.874969 21997.564076 21925.943345 21463.071099 20607.174480 20738.041181 21833.080129 21657.256222 21086.767786 20670.003054 20433.204570 20145.934994 19892.401000 20016.342042 20298.419702 20143.399890 20180.757647 20533.690261 20619.549036 20967.592778 20949.343186 20528.747911 19876.667907 19379.850097 19439.503039 19555.769656 19554.894837 19571.138805 19746.628043 19859.739426 19924.539210 20085.639078 20013.392839 19590.303949 19461.821562 19454.320233 18888.702740 18175.670885 17618.642049 17340.405274 17181.322922 17105.409255 17103.488580 17087.074255 17063.181325 17199.645975 17373.613559 17374.123399 17214.665746 17031.550457 16920.297323 16721.992546 16416.661663 16245.914316 16145.950504 15965.446895 15557.852796 14953.237934 14533.951125 14657.897122 15006.954794 15123.352287 14963.250314 14677.268863 14396.183743 14030.786655 13776.966356 13632.225879 13424.851237 13188.506402 13039.113440 13088.625221 5137.982075 4317.414655 3110.257436 2059.713278 1697.879185 1608.642719 1769.385228 2267.417679 2940.202362 3064.627596 2844.600447 2930.100872 2777.407547 3191.375238 5569.633297 6783.376494 3541.170754 -699.064926 -6358.645237 -11761.265094 -14031.217129 -8077.842312 504.295042 4739.579013 4320.406336 3831.525013 4687.584381 5977.355001 6889.637646 7507.437614 8069.791359 8573.081165 9041.983368 9511.449569 9912.427857 10206.187672 10661.126419 11186.809539 11332.390625 11593.296953 12322.454311 13258.795475 14020.148692 14551.413494 14887.347746 15104.842653 15359.898697 15472.303594 15464.103225 15456.193390 15557.261722 16051.437337 16864.973324 17561.242636 17916.083159 18136.845045 18163.511752 17824.230515 17755.214218 18041.974539 18152.480518 17996.103834 17874.322580 17820.973141 17828.075139 17928.133828 18068.912036 18206.564058 18328.569043 18488.690671 18828.639473 19257.983976 19219.787580 18700.129758 18350.690017 18478.696791 18653.323075 18681.559670 18825.655194 19278.694220 19815.989873 20182.801322 20416.433250 20793.005924 21273.097226 21571.807141 21702.793777 21842.707349 21973.282630 21986.600704 22077.966087 22441.913236 23016.377792 23501.140370 23503.862941 23063.510612 22645.490084 22459.087330 22392.954143 22392.940612 22352.874183 22306.192293 22466.757910 22639.541647 22762.377346 23019.363464 23230.326688 23599.816739 24313.154663 25049.518438 25250.313494 24573.945601 23399.221048 22302.292870 21756.923779 21659.082198 21778.104169 21893.032884 21899.138059 21716.044107 21352.283584 21134.116138 21293.356151 21688.999053 22097.834859 22381.717508 22227.441315 21717.158627 21642.385131 21823.277142 21824.602176 21658.202135 21535.249708 21012.371354 20451.538620 20752.428964 21282.908485 21105.445764 20548.659196 20200.053532 20062.383194 19898.114667 19754.147786 19786.029618 19984.252168 20181.435954 20370.749536 20559.889300 20637.100713 20605.969644 20562.208048 20265.945942 19752.731924 19426.549701 19357.326698 19368.879781 19409.925284 19463.152829 19553.947505 19715.272180 19785.598663 19783.100609 19708.139966 19559.305195 19449.524954 19203.665177 18748.669598 18207.596576 17780.632006 17488.088027 17171.806388 16992.339860 16989.272816 17094.176192 17205.919184 17265.797646 17300.811996 17273.142529 17182.919764 17042.913272 16887.749027 16692.330120 16435.051606 16233.171203 16101.724216 15938.265182 15641.875011 15252.219375 14978.083668 14983.835784 15173.110718 15230.361657 15028.237897 14735.558335 14450.330070 14171.887870 13983.611067 13830.456370 13665.628171 13489.945528 13395.952342 13467.850426 13627.652627 6018.789699 5659.581219 4929.887557 4023.536591 3201.435999 2655.241704 2326.273340 2162.693579 2263.061750 2489.853177 2669.834138 2731.226339 2791.655946 2881.722413 3477.219163 5193.698942 6706.590912 5217.682334 420.137085 -5494.133477 -8062.979734 -6006.322917 -2348.864620 371.150471 1698.764463 2581.034421 3636.126389 4818.336470 5820.794093 6557.347477 7131.928698 7665.852242 8178.614187 8678.501585 9177.592850 9687.948751 10198.626601 10766.376154 11326.163251 11740.036071 12200.947790 12874.597344 13578.659404 14158.719947 14562.651781 14853.861162 15081.738324 15238.128367 15318.961557 15319.611492 15344.808376 15555.383919 15991.773268 16593.877263 17147.882219 17539.426320 17800.848886 17897.858444 17871.220718 17918.134149 17999.581070 17975.481764 17849.070342 17724.696977 17649.471777 17650.170790 17743.348001 17883.868159 18036.502613 18183.490107 18364.468531 18592.486608 18793.563294 18761.745303 18498.375292 18327.968845 18403.124621 18612.792799 18805.342976 19043.574211 19413.301681 19822.074490 20156.066628 20455.388459 20798.453786 21164.849913 21444.216225 21612.470548 21755.490945 21896.895918 21989.096320 22163.459284 22498.943140 22936.762982 23266.215442 23279.887282 23010.347749 22669.559873 22424.854577 22277.957651 22152.524562 22103.318519 22164.165503 22335.080354 22503.172003 22631.956175 22788.188893 23020.048135 23416.729924 23977.516518 24451.324064 24486.875475 23944.787892 23114.475989 22328.757280 21861.409908 21696.525626 21669.546967 21667.520890 21594.208032 21405.753659 21175.504498 21061.006746 21172.413870 21462.594212 21758.105666 21872.195233 21708.663666 21448.568575 21347.240962 21415.581434 21436.239300 21370.735394 21243.915083 20964.434420 20690.364743 20688.412979 20752.956877 20607.427125 20286.986005 20011.114785 19842.824425 19736.992922 19684.197733 19774.050286 19991.625829 20235.387468 20424.047901 20509.825378 20509.774621 20429.234268 20297.256848 20051.566066 19734.236789 19488.062696 19386.214549 19370.498097 19377.083724 19406.610141 19458.222840 19513.937035 19550.350490 19546.514458 19512.539459 19447.305227 19313.927229 19062.637932 18688.372913 18245.330916 17821.229939 17493.804725 17256.503572 17123.007932 17120.853396 17186.661453 17237.742216 17253.787429 17259.882433 17219.167158 17119.324650 16976.976628 16806.882076 16605.213991 16391.174754 16216.096760 16084.649765 15934.492121 15704.995510 15436.551462 15247.426158 15202.997976 15254.587736 15228.401242 15037.213666 14762.580402 14482.405698 14234.265701 14023.804415 13850.487397 13711.945688 13610.793664 13586.469266 13660.669223 13789.579147 13870.129287 13088.625221 12542.350601 12011.071677 11768.010205 11644.128306 11433.873766 11097.689497 10601.207507 9953.288382 9345.997728 8788.731504 8073.522060 7354.547734 6847.054378 6445.062794 6018.425768 5798.321609 5582.746466 5368.803366 5103.256903 5091.914573 5128.248556 5055.090887 4930.416811 4829.396227 4615.498915 4373.325746 4110.422912 3841.711868 3576.160803 3320.015962 3077.480194 2850.936050 2641.383810 2448.821465 2272.568370 2111.528679 1964.392528 1829.780287 1706.339468 1592.804428 1488.028455 1390.996623 1300.826144 1216.759260 1138.152102 1064.461776 995.233033 930.085355 868.700899 810.813550 756.199193 704.667242 656.053385 610.213508 567.018702 526.351244 488.101467 452.165374 418.442902 386.836715 357.251428 329.593172 303.769408 279.688927 257.261983 236.400497 217.018302 199.031402 182.358218 166.919811 152.640072 139.445870 127.267159 116.037052 105.691849 96.171036 87.417257 79.376255 71.996800 65.230594 59.032172 53.358785 48.170287 43.429008 39.099639 35.149104 31.546443 28.262689 25.270759 22.545337 20.062763 17.800922 15.739106 13.857815 12.138310 10.561343 9.103267 7.717709 6.358575 5.640922 13627.652627 13272.677777 12713.953097 12206.118576 11944.004044 11756.188461 11476.417638 11100.779587 10641.777573 10096.153399 9520.418687 8959.856915 8349.321856 7732.640808 7210.480041 6779.358936 6400.704756 6110.411115 5865.056779 5658.075084 5466.043868 5353.387756 5255.978389 5133.099642 5006.366227 4835.027581 4619.840443 4374.370776 4110.677930 3841.612120 3575.761403 3319.426946 3076.783123 2850.191637 2640.636821 2448.102683 2271.896798 2110.914254 1963.838647 1829.285944 1705.900934 1592.416501 1487.685338 1390.692482 1300.555450 1216.516970 1137.933740 1064.263454 995.051436 929.917703 868.544901 810.667348 756.061309 704.536520 655.928944 610.094689 566.905023 526.242366 487.997156 452.065472 418.347303 386.745346 357.164237 329.510111 303.690426 279.613970 257.190983 236.333375 216.954965 198.971746 182.302128 166.867163 152.590733 139.399703 127.224024 115.996805 105.654347 96.136138 87.384822 79.346147 71.968887 65.204748 59.008269 53.336708 48.149923 43.410251 39.082387 35.133262 31.531918 28.249398 25.258622 22.534281 20.052727 17.791868 15.731071 13.851061 12.133838 10.562635 9.122191 7.802879 6.621469 5.836534 5.511028 13870.129287 13725.336695 13364.137940 12862.862687 12403.962354 12062.908638 11785.022239 11484.748606 11116.403838 10671.392077 10161.692947 9613.051785 9044.171958 8460.751109 7893.245704 7384.165911 6945.267278 6568.487522 6257.110500 6000.351003 5784.777919 5601.526461 5456.099206 5327.151166 5185.142401 5025.179009 4838.779618 4620.631614 4373.719357 4110.370994 3841.712835 3576.148323 3320.007664 3077.477123 2850.935211 2641.383580 2448.821387 2272.568338 2111.528667 1964.392523 1829.780285 1706.339468 1592.804428 1488.028455 1390.996623 1300.826144 1216.759260 1138.152102 1064.461776 995.233033 930.085355 868.700899 810.813550 756.199193 704.667242 656.053385 610.213508 567.018702 526.351244 488.101467 452.165374 418.442902 386.836715 357.251428 329.593172 303.769408 279.688927 257.261983 236.400497 217.018302 199.031402 182.358218 166.919811 152.640072 139.445870 127.267159 116.037052 105.691849 96.171036 87.417257 79.376255 71.996800 65.230594 59.032172 53.358785 48.170287 43.429008 39.099639 35.149105 31.546443 28.262690 25.270763 22.545348 20.062801 17.801045 15.739510 13.859137 12.142634 10.575499 9.149423 7.872122 6.789441 5.978352 5.561286 5.439906 5.640922 5.191120 4.478113 3.909805 3.432368 3.015903 2.648723 2.324061 2.036948 1.783236 1.559283 1.361836 1.187973 1.035069 0.900766 0.782950 0.679727 0.589404 0.510469 0.441573 0.381515 0.329227 0.283763 0.244281 0.210038 0.180376 0.154715 0.132543 0.113411 0.096922 0.082730 0.070530 0.060055 0.051073 0.043382 0.036804 0.031185 0.026391 0.022307 0.018831 0.015878 0.013371 0.011246 0.009447 0.007926 0.006642 0.005559 0.004646 0.003879 0.003234 0.002693 0.002240 0.001861 0.001544 0.001279 0.001058 0.000875 0.000722 0.000595 0.000490 0.000403 0.000331 0.000271 0.000222 0.000182 0.000149 0.000121 0.000099 0.000080 0.000065 0.000053 0.000043 0.000034 0.000028 0.000022 0.000018 0.000014 0.000011 0.000008 0.000006 0.000004 0.000002 0.000000 -0.000002 -0.000003 -0.000005 -0.000007 -0.000010 -0.000013 -0.000016 -0.000020 -0.000025 -0.000031 -0.000039 -0.000047 -0.000058 -0.000071 -0.000087 -0.000106 -0.000129 -0.000157 -0.000191 -0.000231 -0.000280 -0.000339 -0.000409 -0.000494 -0.000595 -0.000716 -0.000861 -0.001034 -0.001239 -0.001483 -0.001774 -0.002118 -0.002525 -0.003008 -0.003577 -0.004249 -0.005041 -0.005973 -0.007067 -0.008351 -0.009855 -0.011616 -0.013673 -0.016073 -0.018869 -0.022124 -0.025906 -0.030295 -0.035382 -0.041269 -0.048072 -0.055925 -0.064975 -0.075391 -0.087363 -0.101105 -0.116855 -0.134883 -0.155490 -0.179011 -0.205822 -0.236340 -0.271029 -0.310405 -0.355038 -0.405560 -0.462667 -0.527128 -0.599787 -0.681573 -0.773501 -0.876685 -0.992338 -1.121785 -1.266466 -1.427944 -1.607913 -1.808205 -2.030797 -2.277820 -2.551562 -2.854478 -3.189195 -3.558520 -3.965443 -4.413142 -4.904990 -5.444553 -6.035599 -6.682094 -7.388203 -8.158290 -8.996914 -9.908825 -10.898956 -11.972419 -13.134488 -14.390592 -15.746301 -17.207304 -18.779392 -20.468440 -22.280377 -24.221160 -26.296748 -28.513068 -30.875981 -33.391251 -36.064520 -38.901316 -41.907161 -45.088038 -48.452013 -52.014718 -55.817342 -60.006255 -64.823740 -67.685363 5.511028 5.361169 4.958941 4.405205 3.887864 3.424242 3.012044 2.646296 2.322202 2.035382 1.781867 1.558073 1.360762 1.187019 1.034222 0.900016 0.782286 0.679140 0.588886 0.510012 0.441171 0.381161 0.328917 0.283491 0.244043 0.209829 0.180194 0.154556 0.132405 0.113291 0.096818 0.082639 0.070451 0.059987 0.051015 0.043331 0.036760 0.031147 0.026359 0.022279 0.018808 0.015858 0.013354 0.011231 0.009435 0.007915 0.006633 0.005551 0.004640 0.003873 0.003229 0.002689 0.002237 0.001858 0.001541 0.001277 0.001057 0.000873 0.000721 0.000594 0.000489 0.000402 0.000330 0.000271 0.000222 0.000182 0.000148 0.000121 0.000099 0.000080 0.000065 0.000053 0.000043 0.000034 0.000028 0.000022 0.000018 0.000014 0.000011 0.000008 0.000006 0.000004 0.000002 0.000000 -0.000002 -0.000003 -0.000005 -0.000007 -0.000010 -0.000013 -0.000016 -0.000020 -0.000025 -0.000031 -0.000038 -0.000047 -0.000058 -0.000071 -0.000087 -0.000106 -0.000129 -0.000157 -0.000190 -0.000231 -0.000280 -0.000338 -0.000409 -0.000493 -0.000594 -0.000715 -0.000860 -0.001032 -0.001237 -0.001481 -0.001771 -0.002115 -0.002522 -0.003004 -0.003573 -0.004244 -0.005035 -0.005965 -0.007058 -0.008341 -0.009844 -0.011602 -0.013657 -0.016055 -0.018849 -0.022100 -0.025879 -0.030264 -0.035346 -0.041227 -0.048025 -0.055870 -0.064913 -0.075320 -0.087283 -0.101013 -0.116752 -0.134766 -0.155357 -0.178862 -0.205653 -0.236150 -0.270816 -0.310166 -0.354770 -0.405260 -0.462332 -0.526755 -0.599372 -0.681111 -0.772989 -0.876117 -0.991710 -1.121091 -1.265701 -1.427101 -1.606986 -1.807188 -2.029684 -2.276602 -2.550232 -2.853028 -3.187618 -3.556806 -3.963584 -4.411129 -4.902814 -5.442205 -6.033070 -6.679375 -7.385284 -8.155163 -8.993570 -9.905256 -10.895154 -11.968375 -13.130196 -14.386046 -15.741495 -17.202233 -18.774053 -20.462830 -22.274493 -24.215004 -26.290320 -28.506369 -30.869013 -33.384006 -36.056963 -38.893313 -41.898255 -45.076715 -48.433268 -51.971884 -55.694254 -59.581953 -63.498133 -66.266396 -67.352870 5.439906 5.396633 5.208521 4.826070 4.355481 3.872837 3.421047 3.012445 2.647666 2.323738 2.036849 1.783206 1.559274 1.361833 1.187972 1.035069 0.900766 0.782950 0.679727 0.589404 0.510469 0.441573 0.381515 0.329227 0.283763 0.244281 0.210038 0.180376 0.154715 0.132543 0.113411 0.096922 0.082730 0.070530 0.060055 0.051073 0.043382 0.036804 0.031185 0.026391 0.022307 0.018831 0.015878 0.013371 0.011246 0.009447 0.007926 0.006642 0.005559 0.004646 0.003879 0.003234 0.002693 0.002240 0.001861 0.001544 0.001279 0.001058 0.000875 0.000722 0.000595 0.000490 0.000403 0.000331 0.000271 0.000222 0.000182 0.000149 0.000121 0.000099 0.000080 0.000065 0.000053 0.000043 0.000034 0.000028 0.000022 0.000018 0.000014 0.000011 0.000008 0.000006 0.000004 0.000002 0.000000 -0.000002 -0.000003 -0.000005 -0.000007 -0.000010 -0.000013 -0.000016 -0.000020 -0.000025 -0.000031 -0.000039 -0.000047 -0.000058 -0.000071 -0.000087 -0.000106 -0.000129 -0.000157 -0.000191 -0.000231 -0.000280 -0.000339 -0.000409 -0.000494 -0.000595 -0.000716 -0.000861 -0.001034 -0.001239 -0.001483 -0.001774 -0.002118 -0.002525 -0.003008 -0.003577 -0.004249 -0.005041 -0.005973 -0.007067 -0.008351 -0.009855 -0.011616 -0.013673 -0.016073 -0.018869 -0.022124 -0.025906 -0.030295 -0.035382 -0.041269 -0.048072 -0.055925 -0.064975 -0.075391 -0.087363 -0.101105 -0.116855 -0.134883 -0.155490 -0.179011 -0.205822 -0.236340 -0.271029 -0.310405 -0.355038 -0.405560 -0.462667 -0.527128 -0.599787 -0.681573 -0.773501 -0.876685 -0.992338 -1.121785 -1.266466 -1.427944 -1.607913 -1.808205 -2.030797 -2.277820 -2.551562 -2.854478 -3.189195 -3.558520 -3.965443 -4.413142 -4.904990 -5.444553 -6.035599 -6.682094 -7.388203 -8.158290 -8.996914 -9.908825 -10.898956 -11.972419 -13.134488 -14.390592 -15.746301 -17.207304 -18.779392 -20.468440 -22.280377 -24.221159 -26.296746 -28.513062 -30.875963 -33.391194 -36.064337 -38.900718 -41.905212 -45.081691 -48.431339 -51.947351 -55.598434 -59.281652 -62.714620 -65.438615 -66.814249 -67.169614 -67.685363 -71.223211 -77.654597 -83.853941 -90.019056 -96.307367 -102.754827 -109.367987 -116.143799 -123.075746 -130.155686 -137.374416 -144.721863 -152.187159 -159.758687 -167.424132 -175.170533 -182.984343 -190.851507 -198.757544 -206.687646 -214.626793 -222.559878 -230.471854 -238.347893 -246.173567 -253.935041 -261.619279 -269.214255 -276.709168 -284.094627 -291.362790 -298.507389 -305.523538 -312.407149 -319.153669 -325.755697 -332.198950 -338.456090 -344.478569 -350.187919 -355.469672 -360.173444 -364.119595 -367.104893 -368.880727 -369.159298 -367.218049 -362.201153 -356.718334 -363.175892 -386.329826 -418.015623 -466.713474 -524.947607 -540.995807 -537.691760 -403.409055 -258.927730 -297.013309 -422.986936 -672.738606 -799.611685 -757.664507 -852.949239 -1227.372105 -1945.119834 -2747.618195 -3137.648463 -3252.351728 -2430.614196 -1057.060419 -888.334250 -787.355780 -1123.107221 -1340.807029 -1268.280702 -945.776965 -823.320716 -924.651753 -1162.763531 -859.610275 -376.688371 -17.365526 -467.716393 -1322.421949 -1930.223513 -1783.878971 -1676.716508 -1494.951572 -1112.625888 -754.454324 -624.237607 -445.937642 90.672010 809.390767 1032.841529 1113.553031 1350.426928 2052.110615 3263.437585 -67.352870 -68.888580 -72.625155 -78.110696 -83.971947 -90.048657 -96.310737 -102.750483 -109.361516 -116.136929 -123.069033 -130.149326 -137.368494 -144.716430 -152.182253 -159.754341 -167.420378 -175.167396 -182.981848 -190.849673 -198.756386 -206.687175 -214.627013 -222.560786 -230.473441 -238.350141 -246.176449 -253.938522 -261.623311 -269.218784 -276.714128 -284.099946 -291.368396 -298.513214 -305.529540 -312.413339 -319.160158 -325.762779 -332.207196 -338.466458 -344.492449 -350.207031 -355.495793 -360.208232 -364.164980 -367.166211 -368.978256 -369.324031 -367.739621 -363.390084 -357.546579 -358.430274 -377.713075 -412.706624 -445.019634 -469.199850 -469.312445 -419.169750 -357.064598 -310.740615 -307.958529 -451.020074 -674.708590 -817.829946 -865.245164 -986.654697 -1340.024563 -1820.963575 -2276.093681 -2522.476014 -2302.834768 -1673.091852 -1164.671205 -939.582608 -961.930527 -955.026671 -920.670636 -873.766102 -764.994867 -745.317329 -898.148584 -1103.650178 -1077.582368 -640.423042 -226.271331 -635.053128 -1529.451619 -1759.418785 -1523.269880 -1377.988430 -1209.821624 -969.219207 -749.218402 -447.825908 -103.193456 395.107217 952.083350 1330.822035 1591.592156 1901.912591 2830.889245 4153.199706 5137.982075 -67.169614 -67.726044 -69.686757 -73.495453 -78.458313 -84.095784 -90.093521 -96.330215 -102.761841 -109.370140 -116.144460 -123.075949 -130.155748 -137.374435 -144.721869 -152.187161 -159.758687 -167.424132 -175.170533 -182.984343 -190.851507 -198.757544 -206.687646 -214.626793 -222.559878 -230.471854 -238.347893 -246.173567 -253.935041 -261.619279 -269.214255 -276.709168 -284.094627 -291.362790 -298.507389 -305.523538 -312.407149 -319.153669 -325.755697 -332.198949 -338.456087 -344.478564 -350.187930 -355.469821 -360.174373 -364.123453 -367.120520 -368.940676 -369.326565 -367.987322 -364.353566 -359.174871 -358.185767 -369.999780 -399.195820 -437.146890 -461.609482 -454.960907 -413.517437 -364.864596 -336.459201 -363.955988 -492.647696 -678.217948 -847.835841 -980.056767 -1149.309829 -1428.138604 -1762.579961 -2053.894695 -2177.240330 -2025.040967 -1647.973946 -1248.711983 -990.677359 -897.027074 -815.390695 -733.421515 -672.944461 -651.195828 -726.186545 -900.047508 -1042.985963 -997.673681 -741.041718 -561.106849 -762.950696 -1210.058237 -1409.490100 -1346.392529 -1195.044865 -986.826352 -778.150975 -564.455221 -225.969936 185.208543 692.642375 1218.545587 1655.290544 2015.915063 2507.121256 3392.867161 4545.499887 5545.577369 6018.789699 5404.732197 1499.527203 6929.860294 2153.738437 -125.910459 -1844.675283 2893.026562 2224.754249 2651.141177 -1716.770367 -871.049162 1626.386179 4285.316502 -260.767418 1521.080759 1779.377113 1240.715919 1380.988254 795.377099 -209.350757 4135.623406 -190.277170 1204.600531 4616.734856 4297.653453 3376.580360 1402.153264 17642.958574 1673.896841 2526.068663 4495.230878 2339.911343 2768.725311 1056.113844 4687.141306 1048.225258 -470.452507 2795.226102 301.806670 185.185822 4397.461894 -1523.603934 2191.990196 4234.790544 1575.083633 5644.242450 3506.642368 4924.052104 4596.398074 4219.380663 5299.644274 -590.355003 4524.989310 907.745288 3469.974804 -782.938855 2514.195448 1770.524528 -707.141611 1094.974537 -9086.357173 3569.864459 4987.538505 5588.880566 2824.752185 2810.460082 3525.293244 1494.646279 2878.278721 1305.398718 -94.262460 -14275.662545 4795.236705 2251.857097 1861.992371 2287.679346 1455.156332 -259.741955 741.430778 525.225383 -2236.545275 3888.156772 5336.366724 5635.570095 9199.659874 1939.360252 58363.805883 -11775.379112 3783.802878 -1305.257415 3190.708465 5588.661740 2458.696493 -46.080349 4235.196118 387.381104 3392.854285 -8078.030536 1213.300821 2182.864477 2013.456450 570.223200 5185.249727 4853.067874 2373.333136 6158.791090 5632.733410 37346.692646 967.761934 3675.845961 3641.904388 2708.112462 1251.024105 3867.985250 2485.493377 1858.083384 1510.591736 2529.759452 3726.808424 363.275011 8899.622495 3335.105692 7994.902389 4240.626934 1898.331378 7014.736148 7554.500601 5414.333061 55082.249195 22964.118793 3510.384978 -497.389151 3276.396879 3384.460744 682.048313 6105.252615 3384.850858 5212.256104 3868.402169 3308.044681 24830.509294 3135.584455 43018.105855 9082.016109 7758.234273 6374.727246 24996.656969 8491.313103 7153.154378 1640.309995 4753.374415 2791.572457 5604.284474 20711.720885 1713.667933 2975.807595 57730.604269 5108.106124 1875.299179 2093.835036 8138.504992 5671.580098 5953.549817 4356.333243 2920.165123 1575.058168 9471.551154 1111.618261 3613.141310 1562.178603 54388.648400 3807.138224 2780.728665 1846.023333 4820.502034 2699.555456 3735.390437 4646.411380 2070.630976 2179.082781 -14638.066481 10385.044714 7367.814292 10378.394511 4690.568939 2133.585035 8133.873564 5988.157570 5983.616271 10260.036737 -8246.707592 -5822.817193 7235.066986 54889.220410 6846.101187 1484.568656 6117.704821 3981.948758 10557.532043 4921.115769 3551.588624 2388.207544 1490.066492 9243.678823 7385.385294 7410.147284 1923.133200 6688.557324 7190.029707 24989.934396 8201.732666 6065.556608 2283.340586 12545.574975 10686.362465 19198.259513 2827.271268 4455.821988 3073.537709 7824.370215 9865.204432 34186.956420 25750.078740 11255.352286 2957.261517 6633.229940 3600.966616 3716.391458 9788.616804 11195.927587 9653.232295 28867.125660 7714.334630 6765.570612 9829.576560 6488.109539 4547.604557 4243.142685 8218.489464 -16538.858462 50700.016266 12858.122872 5934.780782 3673.300527 5598.943258 48.819249 9814.851760 10443.721338 7473.801724 8203.261987 6220.989975 10327.221763 7438.009800 8440.467621 9579.321417 7046.989271 -13729.049419 14599.481765 13497.219020 9284.597668 5230.136017 4561.381416 9366.166314 7526.956773 3225.527043 8260.630056 10858.143995 8801.217956 6217.655554 8742.941717 2250.459415 6407.210180 9732.133058 11281.670971 6293.638382 4883.529027 11143.164611 11658.258139 -1219.128480 1430.206305 6378.277098 12555.274806 9616.888627 10073.111136 13480.568179 6515.619936 13062.343882 7561.472060 9078.981034 6153.360493 8493.064273 9211.043765 8467.325273 10335.642208 7415.962718 11266.447911 15145.859470 10151.605213 12507.528785 12899.091940 7506.407971 9396.700640 4463.026213 1191.298979 8164.481835 9549.561498 11006.790803 8748.668640 8739.134262 11807.311977 12871.479288 14155.111492 40682.435865 8230.777177 7200.014719 8857.070440 11112.235218 4320.396378 7390.272186 13543.762072 8027.853231 11145.513792 15368.484571 9616.465344 9308.681788 7526.501404 9214.763376 8476.779065 11688.226610 10726.454748 14902.717963 13505.905846 15685.605498 11137.938101 10526.617054 13540.351596 5310.517557 -14521.747596 35852.614423 48299.804608 11536.903917 7117.530497 6442.724911 8168.236461 7551.370157 7207.673248 15626.909515 14803.925719 13790.456275 12405.696682 10683.393384 13663.291399 8499.942657 15275.599252 14041.225411 14069.954971 2954.754619 15502.048869 13689.254978 29535.040103 13103.019147 15783.542066 6379.896987 15207.180929 15709.682426 14511.776655 14059.013205 16456.329965 13791.223976 9593.929380 10734.696910 16576.862396 13224.856597 15528.123173 11848.763211 8654.536143 15329.319565 10510.570715 12419.362344 9806.401133 13138.022607 10249.721560 14803.962632 14355.021098 13835.373522 12181.873550 12680.836722 10465.215967 9214.619183 15018.911540 16684.411911 14665.626138 15419.045902 14896.393218 15733.158919 14379.888895 12319.908901 3251.546970 50758.755376 8041.619845 12461.518058 8994.137513 15680.135578 12922.683616 10449.362905 14825.963872 16003.386125 11459.465685 11741.822048 12216.616437 14201.300708 10859.854822 16252.345611 11032.829230 16041.012930 15435.849267 14838.606346 14808.193222 13115.365925 6735.755401 15755.855250 11168.769511 13936.785309 7983.183109 9331.412206 12639.388678 13743.637636 12141.701838 14048.214403 12142.815135 12686.460734 14102.589174 10518.576901 16987.698167 15459.773187 15155.206189 13897.904607 13061.011997 11682.251255 8361.513536 11866.165586 8142.545656 10499.229770 8555.733397 10939.115388 9871.763337 9531.058407 15362.408361 7718.763687 9974.299625 16656.803584 10515.644629 14984.373614 17424.978349 14022.880929 15839.407657 15769.771864 12160.475356 1753.763470 15286.424547 13383.158400 11339.324930 10667.738100 7905.702824 11592.952428 8364.941593 11722.707060 15378.673158 15885.928887 9412.583885 12355.462019 11334.164493 16751.051848 15247.833418 16139.044088 16427.500564 7613.196103 17833.596246 11888.972240 3566.402078 11769.231154 17662.623478 11035.422528 11096.653117 16489.679931 9221.771785 16919.390091 12313.801095 14011.926833 15626.639492 15255.383726 14676.516285 16928.928570 15883.062586 16436.270424 15320.842568 15973.909069 16665.626180 7776.028235 13382.267180 10175.599301 14679.539656 15477.770849 15532.742400 12672.984150 16471.347527 13603.729311 17740.388229 12679.662891 17590.868603 17014.644576 14681.398509 16711.129021 17150.282036 15916.686171 12433.667796 17729.619837 12703.442560 12038.971817 12965.403537 19144.242598 16733.653574 10370.106477 16207.127468 8745.099766 13534.674238 15009.036417 8801.203244 15616.331873 17125.403902 16208.107706 13383.397159 15937.995935 17737.946306 12909.918021 14050.522058 18419.000162 14576.436595 8420.585646 6823.698621 10903.556341 9414.153979 10922.757958 11446.287729 9536.121474 10001.163781 13744.910101 13880.333041 17165.564666 15573.755263 16540.563345 12608.157623 11507.902240 17440.730910 18501.854320 15791.059244 15505.689505 17914.315133 8894.699205 14017.740557 8510.174318 7583.686616 6387.021795 12304.353623 15200.683047 12250.992452 12447.101282 12707.269342 8190.854645 17611.633857 10729.953810 17533.880928 18136.239262 17420.646373 17167.257683 17875.561200 18096.978777 16220.512312 17390.325638 16003.700637 1291.208980 8113.033629 3705.883198 8855.292898 14013.017906 13768.478538 10187.155585 12100.734618 10372.187553 11036.133608 14809.643763 15414.470026 9991.687857 15076.523860 15894.250291 18040.660598 16907.182495 14872.307366 16828.989387 7091.096377 1795.569630 3162.921620 3191.092886 6543.586054 3999.062315 9017.458339 11519.564416 16535.738151 8354.998360 11498.135116 9908.757508 10290.365857 13781.192840 12496.586451 16856.818088 18243.261360 13728.339939 18241.599598 9069.065078 16470.404124 3002.855798 3830.864724 2098.942410 930.960992 11843.626675 5552.221774 9021.121281 9445.908367 8205.811611 11534.585751 7306.476251 11472.468707 10013.495186 18032.122621 13319.457556 18125.671290 15037.980923 18539.662794 13001.955913 15754.307593 3795.042783 3590.929631 3897.041136 2952.177917 3520.867343 6335.574363 7363.090337 9317.913083 8264.607085 9971.128627 7372.803162 11048.551860 18211.793794 10685.105070 13461.688504 16502.723596 14765.988188 13588.404262 12970.735261 13056.711627 2834.101679 2464.393088 5250.678186 1646.743792 3695.301501 7716.692558 5702.594766 6372.177386 9160.381974 6929.225640 10801.252575 11493.295376 9728.068121 10115.931682 14674.165856 13540.588061 13717.960486 17479.463433 9553.719582 9434.135949 1880.562635 1807.415782 2818.129891 2965.642981 5898.701842 5077.584237 7227.504646 10301.067083 9434.034609 9756.878897 11470.357627 13063.559636 12378.591789 16830.820173 16665.218122 18493.329544 16197.568444 17481.634182 15423.386309 15039.175764 -882.262808 5057.209406 4042.164050 3512.109108 2485.672227 1768.726811 2888.222999 5774.212275 5446.134250 5590.456364 