<VTKFile type="PolyData">
<PolyData>
<Piece NumberOfPoints="6715" NumberOfVerts="6715" NumberOfLines="0" NumberOfStrips="0" NumberOfPolys="0">
<PointData>
<DataArray type="Float64" Name="Pressure" format="ascii">
 4521.033926 3585.665672 2696.428424 2045.904278 1401.214631 1469.809170 2103.713310 2782.281714 2853.057445 2384.222132 2359.278762 2662.002677 2965.716224 3227.329618 1413.509544 761.656463 8454.040388 26151.978916 24689.062839 -3507.609517 -14462.670293 -10917.716216 -1153.265561 4572.070424 5274.429249 4401.528845 5068.526896 6427.475863 7198.560619 7537.401503 7695.240577 7972.021674 8544.885109 9486.094135 10299.423860 10864.105825 11284.716897 11695.674687 12135.705372 12793.823368 13611.674284 14246.739798 14807.872616 15127.860183 15234.715755 15485.537751 15680.094540 15570.486115 15381.894848 15423.655972 15786.210952 16312.922376 16989.239316 17638.899747 17949.791242 17729.597897 17290.445288 17302.951350 17649.046551 17838.897833 18000.660540 18098.977042 18039.666629 17811.946756 17642.638047 17848.101685 18109.884599 18094.519924 18035.782827 18264.734342 18522.290589 18399.846368 18040.257688 17915.344871 18131.119496 18341.285132 18439.264301 18702.920645 19298.565340 19858.059008 20151.639319 20475.895938 20936.759405 21361.583652 21496.156842 21454.961593 21479.384370 21591.119167 21736.481301 21903.249284 22380.020851 23267.764520 23938.356052 23919.028029 23350.131408 22763.998181 22362.601987 21944.074733 21557.091240 21514.003581 21990.324834 22696.691187 23170.128096 22955.386135 22548.514375 22682.928061 23464.573115 24514.842974 25456.393296 25349.472439 24022.647839 23040.366199 22749.152116 22805.398640 22742.916431 22389.274594 22120.929521 22011.562841 21679.233770 21195.045701 21076.092390 21334.040197 21894.792631 22480.581377 22450.118920 21747.835943 20983.073769 20772.425406 21042.480245 21432.264851 21805.534790 21881.081847 21329.685672 20170.303408 19719.153494 20093.948978 20363.074834 20317.376790 20216.152183 19926.668420 19531.020070 19353.484578 19668.197864 20285.360250 20783.980546 20943.801432 20764.253484 20484.807893 20436.555421 20500.525580 20252.472989 19631.349752 19172.285529 19356.261304 19636.412611 19638.141167 19609.275549 19601.526468 19434.088499 19223.082485 19253.498287 19447.505803 19600.673500 19550.388276 19300.533299 18879.703548 18385.191425 17809.609627 17316.546918 16953.603912 16871.519474 16953.177563 17148.665487 17391.966475 17577.694231 17577.354423 17410.026618 17139.028644 16900.185426 16778.607593 16621.658699 16366.383337 16219.314688 16196.691611 16159.632836 15924.675056 15480.532677 15144.653380 15157.475067 15309.246296 15260.795584 14957.078174 14582.197101 14387.496647 14239.262054 14061.703324 13801.753561 13490.494229 13221.960191 13198.849651 13365.825089 6467.643132 5751.649029 5128.141239 4508.619870 3789.513462 2983.859397 2537.334865 2426.679822 2390.456034 2048.377274 1681.305000 1872.615027 2482.197078 3261.691862 4467.982369 4917.461767 4518.805640 4747.157204 7239.978086 4076.927992 -5520.153081 -8663.343561 -4598.020715 1260.974550 3995.790674 4451.898785 4624.756300 5418.605221 6281.669700 6761.447294 7015.067294 7262.485204 7623.787517 8204.393544 9068.600557 10016.583488 10900.174278 11634.493264 12174.102220 12632.053143 13169.443692 13759.040649 14286.357010 14726.704363 14992.606867 15147.823618 15378.534649 15543.105647 15499.165266 15400.634849 15454.145381 15763.271551 16249.299219 16794.171313 17251.957802 17518.950074 17533.219293 17417.421050 17440.741432 17593.970017 17696.748143 17755.098231 17741.922689 17608.565036 17442.622429 17420.221100 17624.289871 17913.856501 18044.976833 18063.151901 18244.198581 18466.638787 18387.201434 18087.207175 17982.089407 18191.185857 18449.749290 18666.065894 18988.916830 19474.337503 19945.415406 20254.794367 20511.997571 20873.480122 21237.061840 21428.589438 21511.102450 21596.299033 21691.460243 21791.664850 21977.517938 22415.877987 23081.466562 23553.995505 23497.651215 23047.708508 22536.460948 22080.328888 21717.502636 21550.767386 21631.622754 21997.825000 22498.359713 22740.773555 22541.778313 22228.241573 22259.195824 22819.293466 23686.623936 24433.815633 24428.795243 23583.010816 22696.541677 22200.394139 22067.836247 21984.110162 21811.456142 21676.422946 21543.695286 21224.514989 20844.389708 20740.759552 20991.124404 21414.218727 21782.161828 21766.688041 21273.755332 20636.876717 20409.771447 20552.179723 20766.608818 21096.271807 21320.143975 21115.968316 20533.981633 20182.993958 20164.746500 20051.670330 19845.927817 19720.610136 19627.838219 19542.511786 19560.917633 19837.516838 20253.193320 20549.308510 20629.884874 20495.276472 20286.324911 20215.615782 20221.129253 20061.094585 19686.310380 19387.602246 19401.625463 19529.422877 19563.389037 19529.465697 19465.796555 19340.545161 19204.565232 19190.277053 19274.402673 19301.180971 19192.549020 18972.189398 18675.712802 18322.992812 17879.005736 17494.522106 17290.768143 17264.143586 17312.518124 17391.244572 17463.670682 17486.671460 17426.946185 17266.633641 17038.210364 16830.507780 16703.662556 16581.767822 16420.597999 16302.004282 16256.708031 16198.819630 16011.286489 15755.498894 15586.820069 15566.286471 15598.256912 15447.376684 15100.959539 14735.203585 14478.738057 14312.032330 14134.814171 13909.972448 13742.010227 13642.260171 13655.990525 13803.529376 14000.412705 7384.532160 7084.882364 6551.513390 6024.707191 5467.259455 4762.790938 3968.541955 3258.381488 2687.681853 2147.748667 1600.293324 1316.089571 1528.126061 2225.227702 3201.516980 4417.374510 5070.008140 3793.288416 905.635239 -1946.674220 -3570.214741 -3938.149293 -2472.779795 83.665232 2122.931667 3139.742009 3782.857836 4572.547733 5403.745493 6022.835611 6389.398801 6647.723337 6930.545888 7328.228047 7941.393619 8805.072364 9820.880287 10830.990733 11698.610060 12338.530579 12842.655945 13330.011698 13812.087386 14272.482027 14647.111448 14886.425497 15064.361961 15259.228447 15395.505921 15403.109297 15379.203091 15440.734284 15682.356987 16099.437312 16542.046800 16899.357392 17156.785275 17296.362246 17337.429514 17384.030787 17469.534505 17561.492586 17614.592046 17565.402041 17431.309793 17325.624468 17351.691262 17534.356796 17796.922643 17979.153216 18069.631479 18221.422134 18396.350168 18374.707131 18186.430582 18120.308402 18286.821902 18540.146356 18800.231867 19128.478436 19546.414937 19960.549010 20290.055312 20564.274562 20854.361686 21140.613196 21350.107399 21496.401827 21635.802492 21764.514981 21890.722001 22097.285302 22465.801789 22928.155768 23256.461379 23241.009620 22904.689266 22433.341032 21975.985148 21661.799543 21587.923406 21727.751872 22011.409583 22317.617748 22434.980395 22308.771512 22122.235924 22146.144018 22539.106255 23176.129470 23699.863080 23723.197426 23198.075050 22503.374856 22038.971066 21867.135098 21800.603954 21694.904262 21548.886509 21366.217650 21101.115453 20824.644184 20737.438638 20909.970451 21192.716687 21398.276041 21332.146529 20935.477757 20433.982967 20209.232736 20261.280764 20418.699981 20661.266629 20872.268103 20817.673813 20506.595484 20218.909573 20035.269349 19826.824748 19625.167313 19521.810175 19505.158357 19561.554929 19702.034680 19940.159399 20195.817678 20365.121736 20410.758057 20327.671574 20185.955000 20103.390452 20072.476398 19968.718604 19759.177966 19577.438224 19528.180483 19567.946403 19590.796002 19548.366501 19447.426547 19313.926803 19190.312636 19145.667929 19159.874429 19129.560465 19009.235752 18830.908537 18612.201504 18337.852083 17997.444153 17679.872990 17548.212806 17566.574612 17602.018786 17561.250772 17507.683740 17474.850417 17396.410042 17218.492225 16988.973869 16792.662376 16664.994259 16561.676865 16457.201238 16371.012344 16309.031899 16230.224959 16090.882014 15932.169074 15835.513661 15806.541627 15735.881565 15512.796815 15163.032540 14826.744564 14564.592681 14353.425679 14160.552477 13994.304215 13886.140178 13857.634061 13912.223868 14031.462866 14169.427442 14246.926606 13365.825089 12756.853783 12140.817945 11859.103592 11679.558351 11457.076438 11127.419414 10684.011885 10128.444352 9545.639869 8963.770879 8284.407979 7605.348317 7041.304594 6633.154188 6248.592495 6021.660738 5800.529454 5614.039254 5391.627965 5345.492714 5310.698948 5188.721321 5068.355909 4899.874707 4669.277318 4399.525651 4117.773491 3835.236291 3559.957229 3297.586926 3051.653786 2823.862723 2614.589813 2423.309181 2248.927832 2090.041460 1945.122705 1812.649990 1691.187524 1579.428542 1476.213324 1380.531302 1291.513913 1208.422610 1130.634691 1057.628580 988.969450 924.295717 863.306666 805.751361 751.418880 700.129881 651.729447 606.081139 563.062164 522.559542 484.467156 448.683553 415.110384 383.651364 354.211643 326.697500 301.016269 277.076435 254.787837 234.061931 214.812082 196.953855 180.405280 165.087090 150.922916 137.839438 125.766489 114.637121 104.387630 94.957548 86.289602 78.329654 71.026615 64.332353 58.201577 52.591725 47.462840 42.777449 38.500433 34.598907 31.042095 27.801215 24.849359 22.161381 19.713787 17.484619 15.453324 13.600553 11.907719 10.355753 8.921275 7.558581 6.222290 5.516857 14000.412705 13613.323325 13030.258737 12497.656657 12172.887090 11935.999099 11660.507796 11300.521931 10855.927533 10336.636974 9782.438117 9207.874722 8579.813574 7966.211285 7438.911614 6997.168647 6595.235519 6288.206341 6027.332579 5809.493802 5617.390569 5492.860635 5389.729127 5255.712172 5098.678599 4908.184491 4669.145569 4399.421016 4117.657631 3834.918153 3559.398970 3296.870752 3050.859694 2823.049581 2613.797731 2422.563909 2248.243695 2089.424267 1944.572421 1812.162954 1690.758106 1579.050290 1475.879672 1380.235981 1291.251176 1208.187328 1130.422381 1057.435394 988.792140 924.131582 863.153502 805.607399 751.282729 700.000470 651.605971 605.963009 562.948962 522.450983 484.363051 448.583780 415.014869 383.560057 354.124508 326.614501 300.937366 277.001577 254.716958 233.994952 214.748909 196.894381 180.349387 165.034651 150.873796 137.793496 125.723581 114.597101 104.350354 94.922872 86.257384 78.299757 70.998905 64.306702 58.177861 52.569826 47.442646 42.758853 38.483333 34.583207 31.027706 27.788052 24.837342 22.150438 19.703856 17.475663 15.445377 13.593873 11.903288 10.356992 8.939846 7.642260 6.480600 5.708900 5.388877 14246.926606 14107.693270 13745.375319 13225.052442 12748.374681 12390.579877 12104.313823 11789.975896 11404.506948 10952.461632 10450.449240 9909.762235 9332.447461 8729.038638 8143.618087 7615.025373 7146.952688 6736.379847 6395.375581 6112.166072 5881.871587 5699.598979 5554.629328 5417.661610 5271.715740 5108.428375 4907.761941 4666.390734 4398.176734 4117.367248 3835.160177 3559.938437 3297.579051 3051.650113 2823.861325 2614.589275 2423.308982 2248.927770 2090.041443 1945.122700 1812.649989 1691.187523 1579.428541 1476.213324 1380.531302 1291.513913 1208.422610 1130.634691 1057.628580 988.969450 924.295717 863.306666 805.751361 751.418880 700.129881 651.729447 606.081139 563.062164 522.559542 484.467156 448.683553 415.110384 383.651364 354.211643 326.697500 301.016269 277.076435 254.787837 234.061931 214.812082 196.953855 180.405280 165.087090 150.922916 137.839438 125.766489 114.637121 104.387630 94.957548 86.289602 78.329654 71.026615 64.332353 58.201577 52.591725 47.462840 42.777449 38.500433 34.598907 31.042096 27.801216 24.849363 22.161393 19.713824 17.484740 15.453721 13.601852 11.911968 10.369663 8.966629 7.710320 6.645670 5.848204 5.438154 5.318804 5.516857 5.075355 4.375769 3.818480 3.350549 2.942580 2.583066 2.265337 1.984492 1.736442 1.517596 1.324748 1.155021 1.005832 0.874860 0.760026 0.659470 0.571528 0.494715 0.427707 0.369328 0.318531 0.274387 0.236073 0.202863 0.174112 0.149254 0.127788 0.109277 0.093332 0.079617 0.067833 0.057723 0.049060 0.041645 0.035307 0.029897 0.025285 0.021358 0.018019 0.015182 0.012777 0.010739 0.009015 0.007558 0.006329 0.005293 0.004421 0.003688 0.003073 0.002557 0.002125 0.001764 0.001463 0.001211 0.001001 0.000827 0.000682 0.000562 0.000462 0.000380 0.000312 0.000255 0.000209 0.000171 0.000139 0.000114 0.000093 0.000075 0.000061 0.000049 0.000040 0.000032 0.000026 0.000021 0.000016 0.000013 0.000010 0.000007 0.000005 0.000003 0.000002 0.000000 -0.000002 -0.000003 -0.000005 -0.000007 -0.000009 -0.000012 -0.000015 -0.000019 -0.000024 -0.000029 -0.000036 -0.000044 -0.000055 -0.000067 -0.000082 -0.000100 -0.000122 -0.000148 -0.000180 -0.000218 -0.000265 -0.000321 -0.000388 -0.000468 -0.000565 -0.000680 -0.000818 -0.000983 -0.001179 -0.001412 -0.001690 -0.002019 -0.002409 -0.002872 -0.003418 -0.004063 -0.004824 -0.005719 -0.006771 -0.008007 -0.009456 -0.011153 -0.013136 -0.015453 -0.018154 -0.021299 -0.024956 -0.029204 -0.034129 -0.039833 -0.046429 -0.054047 -0.062833 -0.072951 -0.084587 -0.097951 -0.113279 -0.130833 -0.150910 -0.173840 -0.199993 -0.229778 -0.263654 -0.302129 -0.345765 -0.395186 -0.451080 -0.514205 -0.585398 -0.665575 -0.755743 -0.857004 -0.970561 -1.097727 -1.239930 -1.398723 -1.575787 -1.772942 -1.992156 -2.235546 -2.505390 -2.804132 -3.134392 -3.498965 -3.900833 -4.343170 -4.829341 -5.362910 -5.947642 -6.587503 -7.286659 -8.049480 -8.880532 -9.784573 -10.766552 -11.831593 -12.984992 -14.232201 -15.578816 -17.030557 -18.593250 -20.272808 -22.075202 -24.006437 -26.072523 -28.279442 -30.633114 -33.139365 -35.803904 -38.632326 -41.630228 -44.803666 -48.160782 -51.717285 -55.514435 -59.698644 -64.512390 -67.372492 5.388877 5.241914 4.847312 4.304169 3.796929 3.342566 2.938789 2.580681 2.263511 1.982955 1.735099 1.516408 1.323694 1.154086 1.005003 0.874126 0.759377 0.658896 0.571022 0.494269 0.427315 0.368983 0.318228 0.274121 0.235841 0.202660 0.173935 0.149099 0.127654 0.109160 0.093231 0.079529 0.067757 0.057657 0.049003 0.041596 0.035265 0.029861 0.025254 0.021331 0.017996 0.015163 0.012760 0.010725 0.009003 0.007548 0.006320 0.005286 0.004415 0.003683 0.003069 0.002554 0.002122 0.001761 0.001460 0.001209 0.001000 0.000826 0.000681 0.000561 0.000461 0.000379 0.000311 0.000255 0.000209 0.000171 0.000139 0.000113 0.000092 0.000075 0.000061 0.000049 0.000040 0.000032 0.000026 0.000021 0.000016 0.000013 0.000010 0.000007 0.000005 0.000003 0.000002 0.000000 -0.000002 -0.000003 -0.000005 -0.000007 -0.000009 -0.000012 -0.000015 -0.000019 -0.000024 -0.000029 -0.000036 -0.000044 -0.000054 -0.000067 -0.000082 -0.000100 -0.000121 -0.000148 -0.000180 -0.000218 -0.000264 -0.000320 -0.000387 -0.000467 -0.000564 -0.000679 -0.000817 -0.000981 -0.001177 -0.001410 -0.001687 -0.002016 -0.002406 -0.002868 -0.003414 -0.004058 -0.004817 -0.005712 -0.006763 -0.007998 -0.009445 -0.011140 -0.013121 -0.015435 -0.018134 -0.021276 -0.024930 -0.029173 -0.034094 -0.039792 -0.046383 -0.053994 -0.062772 -0.072882 -0.084508 -0.097862 -0.113177 -0.130718 -0.150780 -0.173694 -0.199827 -0.229592 -0.263445 -0.301894 -0.345502 -0.394891 -0.450751 -0.513838 -0.584988 -0.665120 -0.755238 -0.856444 -0.969941 -1.097042 -1.239174 -1.397890 -1.574871 -1.771937 -1.991054 -2.234340 -2.504073 -2.802696 -3.132827 -3.497264 -3.898988 -4.341171 -4.827180 -5.360577 -5.945128 -6.584798 -7.283755 -8.046368 -8.877202 -9.781018 -10.762762 -11.827561 -12.980711 -14.227665 -15.574018 -17.025492 -18.587915 -20.267199 -22.069318 -24.000279 -26.066091 -28.272737 -30.626136 -33.132107 -35.796330 -38.624304 -41.621300 -44.792317 -48.142010 -51.674424 -55.391333 -59.274398 -63.186880 -65.952854 -67.038240 5.318804 5.276409 5.091944 4.716833 4.255346 3.782179 3.339433 2.939185 2.582029 2.265020 1.984395 1.736412 1.517587 1.324745 1.155021 1.005832 0.874860 0.760026 0.659470 0.571528 0.494715 0.427707 0.369328 0.318531 0.274387 0.236073 0.202863 0.174112 0.149254 0.127788 0.109277 0.093332 0.079617 0.067833 0.057723 0.049060 0.041645 0.035307 0.029897 0.025285 0.021358 0.018019 0.015182 0.012777 0.010739 0.009015 0.007558 0.006329 0.005293 0.004421 0.003688 0.003073 0.002557 0.002125 0.001764 0.001463 0.001211 0.001001 0.000827 0.000682 0.000562 0.000462 0.000380 0.000312 0.000255 0.000209 0.000171 0.000139 0.000114 0.000092 0.000075 0.000061 0.000049 0.000040 0.000032 0.000026 0.000021 0.000016 0.000013 0.000010 0.000007 0.000005 0.000003 0.000002 0.000000 -0.000002 -0.000003 -0.000005 -0.000007 -0.000009 -0.000012 -0.000015 -0.000019 -0.000024 -0.000029 -0.000036 -0.000044 -0.000055 -0.000067 -0.000082 -0.000100 -0.000122 -0.000148 -0.000180 -0.000218 -0.000265 -0.000321 -0.000388 -0.000468 -0.000565 -0.000680 -0.000818 -0.000983 -0.001179 -0.001412 -0.001690 -0.002019 -0.002409 -0.002872 -0.003418 -0.004063 -0.004824 -0.005719 -0.006771 -0.008007 -0.009456 -0.011153 -0.013136 -0.015453 -0.018154 -0.021299 -0.024956 -0.029204 -0.034129 -0.039833 -0.046429 -0.054047 -0.062833 -0.072951 -0.084587 -0.097951 -0.113279 -0.130833 -0.150910 -0.173840 -0.199993 -0.229778 -0.263654 -0.302129 -0.345765 -0.395186 -0.451080 -0.514205 -0.585398 -0.665575 -0.755743 -0.857004 -0.970561 -1.097727 -1.239930 -1.398723 -1.575787 -1.772942 -1.992156 -2.235546 -2.505390 -2.804132 -3.134392 -3.498965 -3.900833 -4.343170 -4.829341 -5.362910 -5.947642 -6.587503 -7.286659 -8.049480 -8.880532 -9.784573 -10.766552 -11.831593 -12.984992 -14.232201 -15.578816 -17.030557 -18.593250 -20.272808 -22.075201 -24.006437 -26.072522 -28.279437 -30.633096 -33.139309 -35.803720 -38.631728 -41.628280 -44.797321 -48.140113 -51.649933 -55.295571 -58.974193 -62.403531 -65.124933 -66.499148 -66.854014 -67.372492 -70.912402 -77.348609 -83.553921 -89.726115 -96.022720 -102.479739 -109.103750 -115.891721 -122.837141 -129.931857 -137.166646 -144.531398 -152.015194 -159.606353 -167.292479 -175.060512 -182.896790 -190.787126 -198.716882 -206.671076 -214.634484 -222.591771 -230.527632 -238.426953 -246.274995 -254.057587 -261.761340 -269.373874 -276.884046 -284.282177 -291.560255 -298.712091 -305.733349 -312.621339 -319.374372 -325.990336 -332.463930 -338.781657 -344.913339 -350.799220 -356.334023 -361.354504 -365.643530 -368.960796 -371.101344 -371.880490 -370.914711 -368.039418 -356.836886 -350.286726 -348.888407 -363.379442 -460.658123 -569.025964 -621.918433 -598.944001 -444.304757 -344.519345 -356.961690 -516.082764 -773.474093 -929.393145 -983.617565 -1075.380725 -1397.655551 -1929.942674 -2432.650741 -2749.327933 -2761.034103 -2083.816523 -1103.977827 -683.453744 -584.886054 -550.051195 -394.066655 -292.884665 -357.844485 -563.519856 -955.484399 -1317.689809 -1334.858547 -852.739464 -2.905870 -1.581692 -849.276968 -1409.302420 -1286.846206 -1016.549701 -907.222836 -863.470512 -753.439179 -453.849809 10.371500 666.730010 1347.147266 1786.871855 1955.400267 2170.190145 3114.482136 4521.033926 -67.038240 -68.575239 -72.314656 -77.804821 -83.671913 -89.755671 -96.026037 -102.475337 -109.097219 -115.884792 -122.830369 -129.925439 -137.160667 -144.525910 -152.010236 -159.601959 -167.288680 -175.057336 -182.894262 -190.785266 -198.715707 -206.670596 -214.634705 -222.592693 -230.529245 -238.429242 -246.277934 -254.061140 -261.765461 -269.378508 -276.889125 -284.287624 -291.565987 -298.718022 -305.739398 -312.627454 -319.380559 -325.996720 -332.470852 -338.789829 -344.924063 -350.814569 -356.356751 -361.387348 -365.687670 -369.015832 -371.167034 -372.003711 -371.270771 -368.830765 -362.595930 -353.464963 -358.258050 -380.186492 -423.644579 -482.131250 -502.174229 -463.864233 -399.758976 -365.506143 -392.706297 -522.379885 -749.645420 -948.000967 -1062.659158 -1198.091014 -1449.046534 -1781.750468 -2114.896616 -2272.149509 -2126.417154 -1638.976798 -1078.979335 -714.237238 -587.947302 -531.316116 -416.445483 -353.025534 -417.884925 -631.550301 -956.170036 -1255.256661 -1296.335132 -856.444600 -235.140035 -342.830811 -1099.552941 -1385.134008 -1021.382458 -657.652194 -538.017886 -520.643344 -399.056731 22.798738 696.869074 1435.317602 2100.721238 2571.811452 2747.922711 2952.440431 3852.550686 5272.521917 6467.643132 -66.854014 -67.411009 -69.373400 -73.185251 -78.152593 -83.795841 -89.800603 -96.045576 -102.486756 -109.105904 -115.892383 -122.837344 -129.931920 -137.166665 -144.531404 -152.015196 -159.606354 -167.292479 -175.060512 -182.896790 -190.787126 -198.716882 -206.671076 -214.634484 -222.591771 -230.527632 -238.426953 -246.274995 -254.057587 -261.761340 -269.373874 -276.884046 -284.282177 -291.560255 -298.712091 -305.733349 -312.621339 -319.374372 -325.990336 -332.463931 -338.781660 -344.913334 -350.799161 -356.333821 -361.354028 -365.642593 -368.961627 -371.113165 -371.992337 -371.438444 -369.371908 -366.418020 -363.201305 -366.018675 -384.359783 -415.563198 -444.540874 -444.321653 -414.823120 -389.041510 -392.847702 -442.595671 -561.658569 -748.826258 -948.279209 -1110.573545 -1264.157855 -1462.323743 -1696.080848 -1895.822354 -1965.716690 -1823.891074 -1479.533268 -1052.582545 -720.431862 -541.921452 -450.544930 -382.881765 -370.841556 -461.582322 -665.168681 -931.483955 -1170.154583 -1219.673609 -945.729436 -579.532303 -629.334051 -1024.508102 -1132.158473 -787.431312 -418.020104 -282.732252 -275.535202 -111.398613 401.317754 1129.450844 1895.972707 2566.140459 3050.389313 3334.042421 3677.598257 4487.180903 5762.312857 6898.863011 7384.532160 3642.026214 1503.216000 2956.013985 1425.921676 -449.706031 -1335.450232 2055.899394 1818.815130 1959.338559 -1013.744976 -570.619230 1857.890199 3568.582761 -148.522493 1170.119725 1377.082605 718.969832 2247.719836 1239.161155 1770.862132 1864.303564 149.384321 1605.266652 1868.905213 2119.573936 3063.212130 1296.572935 10152.576735 1018.264916 1674.846454 2210.034887 1601.213697 1979.666650 1718.767958 2579.969497 1369.795379 -453.500196 2111.946565 667.408155 662.210907 3290.086936 -1233.535115 1386.428115 2181.233510 840.593512 4244.120540 3583.103112 2775.235541 3607.768895 3736.878770 4233.307215 -988.841785 1859.351201 718.031878 3160.672816 1291.738580 1741.132611 1004.844840 1432.101519 987.175330 3772.489388 3198.887332 -6644.139425 3696.719504 2151.829096 3910.772520 3492.756222 1737.006457 2216.730575 791.733734 1006.296774 -11693.913078 2300.332812 2078.496565 1016.889063 1247.892026 840.155568 1421.829323 795.260569 898.136811 -11180.638146 573.322396 4126.616120 3836.538845 4908.621576 1380.436902 35309.998584 -7608.605963 3412.085066 -1060.398844 2655.130962 4001.681265 3136.904705 -1105.646431 4023.911637 601.146510 2733.587543 4278.746565 781.622475 1543.327649 3242.225317 599.701734 2691.610107 3118.722814 1879.345528 4697.094228 7020.307843 37514.996746 607.063408 3244.506851 3557.798434 2406.493217 985.782408 3161.815860 3774.124897 1101.713981 1610.488232 1875.315613 3101.326750 190.974459 472.149504 2590.240117 8442.298422 4347.085103 1311.122735 -2996.068186 9273.372830 3301.400538 37694.095889 -1244.272361 4390.544850 5032.964954 2723.130140 2823.673031 -8000.812383 -7802.835615 2328.487893 4133.771571 3208.705263 2474.183190 27922.950877 -872.586670 10911.203301 9237.386229 8029.734852 2843.066550 30710.800160 7678.633770 6945.836135 -5619.460860 2715.158515 2796.826649 3772.600649 -932.112418 3442.353761 2549.079865 28023.027559 3148.579484 1851.561726 1448.735770 8628.677785 5272.667393 5907.283875 -8403.377022 -8339.267574 2807.557250 9492.558699 -8015.927581 3017.736359 3863.299998 34764.475058 3686.505491 2826.292022 2716.409950 3892.656501 -1779.703536 5576.532348 3424.073628 1522.202571 1532.580933 -5886.063847 10559.968286 8159.391867 10857.702568 3501.549357 -7921.749919 -7347.145298 -1299.414752 6442.614042 10003.223240 -12829.538093 -13897.524295 8869.467504 37987.022536 7132.771120 2069.746481 17410.462383 3888.081144 10698.100142 3220.391217 -8063.143762 1582.754616 944.488057 9355.351153 8028.002859 7724.856236 -7755.287951 7465.280099 -3135.112393 -1041.885452 8764.109675 8407.039620 2089.099654 13174.149849 10829.521180 -1024.709182 1714.153347 4452.680727 1997.571408 9491.959795 10152.972839 27990.108092 5960.523949 11406.108887 2956.207442 7019.969129 5777.617776 3203.139212 10051.958674 11847.969276 9853.904527 32248.877234 8018.529334 7191.616060 9969.006843 6782.860432 3989.810095 5493.252671 7633.422716 -10060.852751 18503.635256 12980.499612 6225.295509 1783.247577 6077.046449 3109.115309 10671.899267 10742.302954 7882.176559 8424.830507 6978.977451 10431.415752 7861.240579 8822.416772 9886.843192 7709.791408 -12356.459213 14469.536596 13508.418224 9479.410270 5199.022519 4096.781828 9791.429069 9026.242153 3063.353136 8523.980946 11374.522534 9168.284544 7159.001504 10032.451396 2731.521585 7497.808735 9489.129878 11699.546480 8005.804643 5509.003668 11516.384392 12723.934325 -12233.793655 2744.391614 7076.647804 12733.758680 10210.376417 10155.657554 13475.411712 7142.546050 13306.648118 7882.205264 9201.587089 6587.262199 8778.096529 9774.869309 8566.622165 10596.332036 7818.964974 11561.609580 15128.178916 10243.136588 12410.145196 13323.434369 7914.163131 9440.538760 4603.989273 -3237.120605 8414.704799 10223.764211 11153.608008 8792.392943 8961.501769 11842.544617 13155.588216 14291.488559 36568.297292 8861.146645 7618.945530 9404.136962 11628.456290 4624.869594 7972.814171 14007.303219 8604.783555 10998.583339 15270.480495 10140.465144 9416.866658 -174.540016 9527.247717 8808.001756 11652.199009 10964.174658 15027.839424 13446.302356 15709.756538 11445.718364 10721.472295 13797.513228 5128.878394 -15054.660261 36748.276537 38196.732398 11390.216163 7928.314480 7297.333893 9029.134166 8459.016743 7728.179814 15761.114809 14666.137581 13937.334525 12659.777334 11013.126461 13716.478091 8959.981687 15454.759049 13866.087436 14058.553936 3916.075192 15313.110605 13856.102697 33773.135813 13214.312400 15835.961180 7211.093864 14973.041853 15632.358118 14887.946057 14385.072515 17175.116252 13904.884463 9573.319406 10751.197312 17310.691633 13231.114127 15525.192724 11941.505201 8152.650877 15129.615829 10291.541752 12530.765754 9644.006637 13304.085801 10711.035554 14815.924309 14823.007663 14046.928250 12149.530717 12856.485878 10434.007652 9521.924655 15362.803354 17033.469509 14350.467769 15254.106108 14974.080351 15683.998855 14895.023347 12573.068073 5387.014289 20298.292427 -1282.247586 12489.350805 8891.901116 16109.513426 13013.134020 10509.396179 15323.637036 16616.295033 11424.382615 11655.659371 12484.956856 14619.642452 10765.538379 16365.369234 11455.696353 16029.282382 15555.373146 15088.545649 14821.348112 13129.504941 7503.233942 16101.259767 11310.512710 13938.408640 8071.725996 9485.217657 12501.226398 13938.779056 12212.526804 14020.552353 12130.240981 12992.206777 14325.473335 10649.048099 17220.744115 15491.343023 15325.160758 14489.504938 13234.850478 12248.515416 -720.075281 12130.226761 8101.000450 10496.902264 8574.160068 11278.547027 9832.355395 9743.653070 14778.827381 8267.549790 10029.218275 17414.013927 10387.436525 14493.594118 18005.138671 14059.844717 16485.099267 15421.199852 13348.144944 4700.518509 15311.125499 13475.973590 11289.918561 10602.876638 8044.142218 11555.261115 8447.223546 11756.641250 15003.100237 15426.614048 9528.981831 12267.794884 11444.442794 16740.490168 14686.264955 15918.753138 16831.089601 7452.180381 17814.903557 12076.220213 3932.511568 11812.092899 17845.182024 11029.616527 11087.411044 16318.382395 9263.027461 16621.218570 12279.520959 13738.459772 15411.392392 14762.473423 14449.966863 16353.353636 15492.253235 17325.242990 15255.991566 15830.001740 17002.795363 7520.590568 14267.185201 10259.527305 14792.173738 15311.465922 15211.698357 13036.631394 15862.299340 13378.823918 17610.884771 12561.262980 17739.575589 17111.025358 14891.507123 17158.816249 16506.620335 15548.880341 12457.612782 17881.999980 12671.869098 12138.560763 13004.184353 18469.374998 16911.180106 10388.872769 15872.609364 8923.315666 13700.598566 14678.090008 9261.167084 15742.796085 16825.247708 16394.099272 13699.148319 15490.924044 17203.093387 13249.481259 14379.800242 17808.755199 14391.165378 7630.933135 6431.638298 10896.065519 9514.496331 11105.728352 11461.137870 9628.674438 10173.935801 13616.715191 14159.039258 17213.790237 15807.463203 16038.213929 12795.517389 11813.255187 17495.338445 18013.152148 15878.216858 15254.156106 17346.815878 10081.827603 14283.694809 8707.902349 7913.462829 6588.612277 12483.467532 14982.684442 12694.999496 12519.834512 12706.765182 8436.963651 17588.473828 11148.321010 17665.053203 18000.864424 17395.816038 16898.344310 17970.991816 18341.176151 17082.211335 17312.051809 16510.124372 1374.286399 8264.598301 3903.578440 9004.988841 13720.613350 13721.817655 10230.381865 12220.044814 10450.994517 11526.315590 14626.995556 15622.827531 10322.932516 15492.658785 16166.177219 17639.638584 16573.784353 15187.349496 16547.270459 8793.278698 2282.259340 3584.524799 3481.888821 6771.508366 4184.810084 9236.750782 11537.041146 16384.128084 8542.521826 11567.757391 10188.220399 10377.853592 14179.666673 12798.243233 17119.821785 18100.155432 14090.496578 18209.550142 8414.003483 16323.985976 3163.141785 4126.384526 2429.777040 1260.723145 11723.253218 5916.829177 9610.916367 9641.658729 8686.953914 11392.154626 7675.478836 11394.830221 10576.692044 18348.153827 13637.833243 18411.156770 14975.560040 17840.783962 13174.658075 15558.795161 3385.164892 3315.083489 4131.604633 3276.372781 3758.930425 6844.573265 7658.334974 9351.452744 8734.553517 10284.856799 7783.374620 11548.789783 18236.779473 11029.536248 13700.392210 16599.807845 15061.870475 13235.160468 12905.584384 12936.189032 3131.692366 3120.499039 5476.556326 1622.123335 3993.040522 8145.193430 6057.217712 6887.291478 9539.008002 7397.972832 10844.449480 11822.717268 9837.678348 10622.589144 14875.608297 13815.109279 13879.824895 17678.623071 10616.261990 10563.035925 1820.029974 1844.760164 3400.541294 2869.461504 6165.999410 5465.468078 7500.886992 10397.899717 9821.003541 9985.486592 11798.125310 13380.209566 12030.248665 17177.782689 16786.469716 18336.862953 16085.189656 18013.087262 15617.657736 15319.910214 686.651980 4994.222787 4331.173031 3715.298320 2675.222664 1924.009444 3039.595432 6138.988711 5914