<VTKFile type="PolyData">
<PolyData>
<Piece NumberOfPoints="6715" NumberOfVerts="6715" NumberOfLines="0" NumberOfStrips="0" NumberOfPolys="0">
<PointData>
<DataArray type="Float64" Name="Pressure" format="ascii">
 8171.896169 7314.112567 5732.682031 3151.832730 -518.151878 -5692.416001 -12303.897692 -19560.038163 -26694.243327 -33418.759335 -38443.249644 -42970.892888 -45503.528021 -46647.951624 -46463.705745 -44004.953068 -36415.045835 -16611.590869 16390.926980 34462.549102 25451.670107 5630.106531 -5598.346825 -11015.648614 -12963.949507 -11118.616470 -7367.020482 -3534.854113 96.207731 3142.133294 5328.769616 6667.289138 7370.079025 7880.146475 8337.080278 8770.886660 9322.308268 9780.871428 10245.032777 10678.415749 11126.616193 11406.424946 11545.697826 11682.819719 11883.347210 12130.192886 12305.945856 12405.064458 12550.048064 12701.451967 12846.285732 12958.140998 13034.561500 13073.154107 13068.276538 13029.621590 13031.672684 13282.332814 13645.076221 13807.831226 13742.666146 13601.110760 13428.866601 13294.082565 13191.939264 13049.222058 12901.831203 12764.766683 12608.436872 12481.068485 12381.553545 12298.762514 12206.014353 12115.736467 12077.582111 12110.266286 12185.195086 12245.868348 12260.091419 12269.706352 12319.724458 12429.293858 12584.273720 12757.019768 12896.077900 13024.417232 13147.622461 13291.184965 13409.513262 13448.268444 13508.279100 13670.239561 13843.232941 14001.862616 14166.302335 14314.597431 14505.100128 14758.395761 14961.685135 15067.821839 15201.847675 15484.315102 15757.276618 15933.508925 16109.863367 16354.652875 16574.097299 16729.940283 16903.043668 17109.565405 17289.123863 17395.875781 17466.286315 17593.668847 17755.421931 17942.802463 18128.535114 18300.147419 18436.200554 18583.712370 18766.723887 18929.103299 19041.695630 19157.764950 19302.444943 19466.091119 19588.288976 19628.820701 19533.613189 19551.915788 19680.136742 19748.804221 19656.237754 19380.808481 19208.384832 19206.251922 19204.706314 19135.294231 19022.206513 18946.980036 18870.751749 18755.336946 18640.772998 18502.198622 18343.239575 18200.405293 18056.185068 17936.674357 17830.835102 17725.665429 17604.575366 17468.107963 17316.318513 17173.666488 17058.440518 16978.222902 16919.757161 16864.365327 16802.681291 16695.612411 16563.696125 16423.336384 16281.959772 16134.801820 16006.765734 15904.204897 15824.297556 15726.230071 15629.529402 15570.345383 15540.992553 15534.997645 15536.611478 15497.565353 15447.492826 15407.390107 15388.501671 15362.701514 15308.475710 15252.976170 15207.788115 15177.245862 15158.634865 15115.414656 15047.069688 14962.669439 14886.827727 14822.673469 14740.664646 14636.853334 14520.064782 14419.084677 14356.248498 14309.572121 14251.117859 14164.184383 14031.770469 13878.747930 13708.604294 13539.921033 13404.358877 8642.235747 8255.565023 7304.562892 5588.745933 2979.400682 -738.132528 -5910.200089 -12482.270809 -19862.895045 -27237.912233 -33879.695936 -39157.425650 -43659.203472 -46491.765040 -48031.189730 -48297.688377 -47228.817774 -43570.865190 -33212.624855 -19472.530594 -7625.520155 -4059.424506 -9645.837214 -14211.979413 -15786.732451 -14762.437611 -11716.244172 -7633.919070 -3516.219099 110.781251 3078.130637 5225.278264 6606.433909 7425.642096 8003.170973 8483.012676 8938.881043 9417.264984 9889.881808 10366.519012 10794.072277 11157.733931 11421.357831 11609.559492 11790.982846 12001.220856 12219.595278 12383.162932 12521.499251 12671.854527 12823.077837 12960.560047 13061.026903 13128.545552 13182.018459 13209.907702 13214.546629 13259.546904 13419.242236 13642.995890 13787.545616 13793.222699 13705.373035 13575.899407 13443.521089 13316.173749 13182.683404 13039.683618 12898.657168 12757.974557 12631.645274 12531.624064 12434.250249 12324.763673 12237.550772 12207.193654 12235.576572 12297.926702 12351.399264 12378.037655 12400.112647 12456.027622 12559.002649 12696.299375 12850.351962 12993.396029 13126.857235 13253.053705 13380.003968 13481.725067 13555.856484 13664.566166 13819.125245 13992.480811 14174.465819 14340.499533 14494.049975 14680.468114 14904.516440 15099.696245 15244.703306 15406.587962 15638.018806 15876.698422 16087.820248 16297.686294 16513.981168 16697.523888 16858.918672 17040.267882 17227.850588 17387.172455 17498.543162 17601.140694 17727.511013 17882.107739 18050.029702 18209.256323 18370.054408 18521.793845 18669.014378 18837.938754 18990.438488 19103.579910 19231.059540 19365.623980 19501.665860 19627.191742 19665.695487 19640.686526 19643.851730 19700.843985 19725.654039 19630.374022 19454.336053 19324.485442 19277.537398 19253.852015 19212.465649 19135.497443 19054.651157 18974.009170 18874.981465 18759.561027 18627.485287 18478.015798 18329.778388 18187.095355 18048.393926 17925.806003 17813.669980 17693.210971 17562.679649 17420.822398 17284.439892 17172.221657 17082.922760 17008.602662 16942.698397 16875.846605 16781.463976 16656.499879 16517.074530 16378.525290 16245.229778 16125.019767 16026.958196 15941.943523 15850.342577 15755.626482 15684.954505 15650.174927 15632.245994 15609.665437 15572.496373 15533.229722 15505.477122 15482.112126 15447.121470 15397.880392 15343.230531 15298.874553 15270.441765 15247.281612 15203.730278 15134.027167 15052.092440 14970.490671 14889.485387 14793.901298 14678.750475 14563.168756 14474.318894 14410.129979 14347.550651 14269.234242 14167.167845 14033.708619 13872.927043 13701.939701 13531.513468 13393.874512 13316.091699 8835.419007 8695.728720 8217.762775 7186.444076 5482.205180 2854.569235 -970.557202 -6196.595612 -12729.244413 -20061.232322 -27438.805068 -34138.984173 -39714.463806 -44009.459811 -46895.270486 -48512.466369 -48950.741534 -48108.958118 -45397.285124 -39439.741231 -30723.587384 -22211.841864 -17521.677006 -17208.926169 -18015.815661 -17628.611226 -15536.347693 -12028.610356 -7797.630202 -3594.867711 82.735613 3007.749545 5129.602654 6538.505314 7435.513689 8052.805732 8549.242082 9007.649765 9466.632507 9931.717973 10388.979294 10803.048860 11150.095295 11425.371356 11647.386459 11850.413091 12055.708886 12253.742029 12426.865060 12583.511720 12733.219447 12875.519275 13000.736921 13098.835596 13171.511414 13225.960169 13261.334003 13292.619266 13358.864770 13485.089322 13644.289610 13760.715625 13784.677787 13725.112859 13617.764356 13491.783830 13360.232464 13225.819837 13087.719426 12947.498720 12811.358307 12687.782253 12578.592273 12473.903873 12374.551932 12301.565526 12273.797487 12291.576874 12337.158316 12385.742396 12424.172003 12463.583589 12526.277306 12623.209556 12748.214662 12889.017444 13030.727876 13165.290919 13294.171370 13414.749822 13518.543632 13616.825306 13736.081191 13883.534292 14051.463516 14227.901702 14398.593905 14567.717072 14753.403885 14955.739290 15146.769401 15317.051319 15498.565714 15711.988945 15938.063764 16156.795515 16370.233098 16574.163464 16759.825263 16933.325689 17107.817036 17277.734156 17427.553236 17551.304056 17667.444698 17794.659318 17939.474708 18095.827669 18252.599662 18408.300097 18561.876663 18714.413426 18867.553100 19011.235228 19140.675622 19268.782403 19398.642226 19523.465125 19625.870906 19675.475795 19684.674075 19697.785129 19724.312810 19715.392811 19633.141574 19506.366489 19398.512519 19334.105363 19293.109820 19246.485646 19180.433898 19101.862815 19016.002477 18918.068905 18804.072226 18674.118302 18531.979245 18386.560945 18244.294783 18107.369380 17980.708484 17860.253931 17737.043822 17606.752570 17471.929463 17342.571281 17229.484389 17134.943048 17053.844659 16980.296720 16903.481243 16809.173330 16691.330331 16558.607395 16424.107686 16295.964265 16180.257367 16079.886431 15988.893577 15899.921532 15815.129355 15747.208597 15704.501922 15675.683888 15647.123076 15613.408570 15579.109190 15549.609081 15520.056680 15483.108728 15437.562674 15388.136301 15343.804369 15309.137750 15275.842572 15228.658406 15161.458163 15083.052454 14999.113353 14909.713447 14810.957008 14701.266993 14594.451407 14505.790594 14430.859993 14356.197299 14269.378793 14161.395398 14025.557729 13866.560087 13698.904737 13536.866792 13396.455057 13310.058601 13279.220063 13404.358877 13394.391120 13289.896158 13060.970081 12702.390115 12275.428024 11812.694733 11290.592829 10699.579289 10075.534375 9469.521536 8806.037239 8161.017169 7557.694020 6987.717784 6439.637376 5939.132159 5435.680932 4994.622516 4545.805312 4239.418392 3852.959435 3531.356770 3270.419491 3056.115665 2877.094126 2724.868781 2592.783396 2475.399579 2368.267175 2267.839120 2171.415542 2077.073906 1983.575999 1890.256854 1796.905212 1703.645298 1610.828096 1518.937731 1428.515770 1340.103825 1254.203106 1171.248545 1091.594699 1015.510678 943.181609 874.714535 810.147054 749.457391 692.574926 639.390475 589.765854 543.542424 500.548484 460.605434 423.532762 389.151927 357.289249 327.777949 300.459466 275.184205 251.811816 230.211151 210.259963 191.844458 174.858745 159.204246 144.789104 131.527607 119.339657 108.150283 97.889214 88.490497 79.892172 72.035989 64.867167 58.334184 52.388597 46.984881 42.080289 37.634725 33.610619 29.972817 26.688473 23.726943 21.059676 18.660117 16.503601 14.567250 12.829872 11.271864 9.875102 8.622846 7.499623 6.491084 5.583737 4.764281 4.017666 3.318029 2.640701 2.286402 13316.091699 13316.622063 13265.376909 13125.498774 12885.789151 12550.979493 12142.898221 11675.042045 11150.838478 10575.243504 9968.280402 9347.863834 8710.814023 8082.777635 7476.251597 6902.325760 6356.736489 5846.043705 5362.249062 4915.896719 4508.833052 4150.974350 3814.825310 3517.426473 3265.119865 3053.620878 2875.634337 2723.896067 2592.110770 2474.944056 2367.976673 2267.671846 2171.335090 2077.048787 1983.580017 1890.269354 1796.910975 1703.634083 1610.793937 1518.878105 1428.430757 1339.995336 1254.074219 1171.102971 1091.436375 1015.343470 943.009112 874.539949 809.973118 749.286363 692.408594 639.230189 589.612571 543.396764 500.410782 460.475796 423.411115 389.038065 357.182871 327.678693 300.366937 275.097990 251.731506 230.136348 210.190291 191.779563 174.798300 159.147951 144.736684 131.478811 119.294255 108.108065 97.849986 88.454080 79.858398 72.004703 64.838223 58.307442 52.363924 46.962153 42.059386 37.615531 33.593025 29.956719 26.673771 23.713541 21.047483 18.649048 16.493574 14.558188 12.821705 11.264523 9.868530 8.616998 7.494492 6.486775 5.580716 4.764226 4.026349 3.359250 2.768343 2.378252 2.216430 13279.220063 13281.547813 13262.774620 13187.819886 13039.646733 12801.843417 12476.151995 12074.704501 11608.863927 11086.976170 10518.542077 9917.444337 9296.877535 8667.672311 8044.837767 7441.525829 6865.649107 6320.750255 5808.470758 5329.473501 4887.545519 4486.005873 4125.146580 3799.506682 3511.655630 3264.045239 3054.183150 2876.516909 2724.696467 2592.731918 2475.384106 2368.262468 2267.837692 2171.415114 2077.073779 1983.575962 1890.256843 1796.905209 1703.645297 1610.828096 1518.937731 1428.515770 1340.103825 1254.203106 1171.248545 1091.594699 1015.510678 943.181609 874.714535 810.147054 749.457391 692.574926 639.390475 589.765854 543.542424 500.548484 460.605434 423.532762 389.151927 357.289249 327.777949 300.459466 275.184205 251.811816 230.211151 210.259963 191.844458 174.858745 159.204246 144.789104 131.527607 119.339657 108.150283 97.889214 88.490497 79.892172 72.035989 64.867167 58.334184 52.388597 46.984881 42.080289 37.634725 33.610619 29.972817 26.688473 23.726943 21.059676 18.660117 16.503601 14.567250 12.829874 11.271869 9.875120 8.622905 7.499819 6.491725 5.585836 4.771163 4.040140 3.393380 2.850446 2.446296 2.238799 2.178194 2.286402 2.076981 1.750196 1.495911 1.286941 1.108395 0.954124 0.820429 0.704555 0.604221 0.517454 0.442525 0.377914 0.322282 0.274451 0.233388 0.198189 0.168060 0.142308 0.120332 0.101605 0.085670 0.072131 0.060645 0.050915 0.042685 0.035734 0.029872 0.024935 0.020785 0.017300 0.014378 0.011933 0.009889 0.008183 0.006762 0.005579 0.004596 0.003781 0.003106 0.002548 0.002086 0.001706 0.001393 0.001136 0.000925 0.000752 0.000610 0.000494 0.000400 0.000323 0.000261 0.000210 0.000169 0.000136 0.000109 0.000087 0.000070 0.000055 0.000044 0.000035 0.000028 0.000022 0.000018 0.000014 0.000011 0.000009 0.000007 0.000005 0.000004 0.000003 0.000003 0.000002 0.000002 0.000001 0.000001 0.000001 0.000001 0.000000 0.000000 0.000000 0.000000 -0.000000 -0.000000 -0.000000 -0.000000 -0.000000 -0.000001 -0.000001 -0.000001 -0.000001 -0.000002 -0.000002 -0.000003 -0.000003 -0.000004 -0.000006 -0.000007 -0.000009 -0.000011 -0.000014 -0.000018 -0.000022 -0.000028 -0.000035 -0.000043 -0.000054 -0.000067 -0.000083 -0.000103 -0.000128 -0.000158 -0.000195 -0.000241 -0.000296 -0.000364 -0.000447 -0.000547 -0.000669 -0.000817 -0.000997 -0.001214 -0.001475 -0.001791 -0.002171 -0.002627 -0.003175 -0.003830 -0.004615 -0.005551 -0.006667 -0.007995 -0.009573 -0.011445 -0.013662 -0.016284 -0.019380 -0.023030 -0.027325 -0.032372 -0.038292 -0.045226 -0.053335 -0.062801 -0.073835 -0.086676 -0.101594 -0.118900 -0.138940 -0.162112 -0.188859 -0.219684 -0.255152 -0.295894 -0.342618 -0.396116 -0.457269 -0.527059 -0.606574 -0.697022 -0.799735 -0.916185 -1.047991 -1.196932 -1.364957 -1.554195 -1.766971 -2.005814 -2.273470 -2.572913 -2.907356 -3.280262 -3.695354 -4.156625 -4.668345 -5.235066 -5.861634 -6.553184 -7.315151 -8.153262 -9.073541 -10.082294 -11.186113 -12.391853 -13.706626 -15.137778 -16.692870 -18.379647 -20.206015 -22.180003 -24.309729 -26.603373 -29.069172 -31.715522 -34.551417 -37.588010 -40.843940 -44.362848 -48.290565 -52.873311 -55.623168 2.216430 2.149247 1.966015 1.715540 1.485423 1.283030 1.106529 0.952957 0.819548 0.703827 0.603597 0.516913 0.442056 0.377506 0.321927 0.274143 0.233122 0.197958 0.167861 0.142137 0.120184 0.101478 0.085561 0.072038 0.060565 0.050847 0.042627 0.035684 0.029830 0.024900 0.020754 0.017274 0.014357 0.011915 0.009874 0.008170 0.006751 0.005570 0.004589 0.003775 0.003101 0.002543 0.002083 0.001703 0.001391 0.001134 0.000923 0.000750 0.000609 0.000493 0.000399 0.000323 0.000260 0.000210 0.000169 0.000135 0.000108 0.000087 0.000069 0.000055 0.000044 0.000035 0.000028 0.000022 0.000017 0.000014 0.000011 0.000009 0.000007 0.000005 0.000004 0.000003 0.000003 0.000002 0.000002 0.000001 0.000001 0.000001 0.000001 0.000000 0.000000 0.000000 0.000000 -0.000000 -0.000000 -0.000000 -0.000000 -0.000000 -0.000001 -0.000001 -0.000001 -0.000001 -0.000002 -0.000002 -0.000003 -0.000003 -0.000004 -0.000006 -0.000007 -0.000009 -0.000011 -0.000014 -0.000018 -0.000022 -0.000028 -0.000035 -0.000043 -0.000054 -0.000067 -0.000083 -0.000103 -0.000128 -0.000158 -0.000195 -0.000240 -0.000296 -0.000363 -0.000446 -0.000546 -0.000668 -0.000816 -0.000995 -0.001212 -0.001473 -0.001788 -0.002167 -0.002623 -0.003170 -0.003825 -0.004608 -0.005543 -0.006657 -0.007983 -0.009559 -0.011429 -0.013644 -0.016263 -0.019355 -0.023001 -0.027291 -0.032332 -0.038246 -0.045173 -0.053273 -0.062730 -0.073753 -0.086581 -0.101486 -0.118775 -0.138798 -0.161949 -0.188674 -0.219473 -0.254912 -0.295621 -0.342310 -0.395767 -0.456876 -0.526616 -0.606077 -0.696463 -0.799109 -0.915486 -1.047211 -1.196063 -1.363991 -1.553123 -1.765784 -2.004502 -2.272022 -2.571318 -2.905603 -3.278339 -3.693249 -4.154326 -4.665837 -5.232338 -5.858670 -6.549973 -7.311678 -8.149515 -9.069505 -10.077958 -11.181463 -12.386878 -13.701315 -15.132122 -16.686859 -18.373274 -20.199273 -22.172884 -24.302219 -26.595428 -29.060655 -31.705982 -34.539374 -37.568588 -40.800907 -44.241497 -47.876134 -51.575239 -54.202710 -55.226258 2.178194 2.159592 2.075486 1.903005 1.692086 1.478414 1.281592 1.106764 0.953627 0.820277 0.704509 0.604207 0.517449 0.442524 0.377914 0.322282 0.274451 0.233388 0.198189 0.168060 0.142308 0.120332 0.101605 0.085670 0.072131 0.060645 0.050915 0.042685 0.035734 0.029872 0.024935 0.020785 0.017300 0.014378 0.011933 0.009889 0.008183 0.006762 0.005579 0.004596 0.003781 0.003106 0.002548 0.002086 0.001706 0.001393 0.001136 0.000925 0.000752 0.000610 0.000494 0.000400 0.000323 0.000261 0.000210 0.000169 0.000136 0.000109 0.000087 0.000070 0.000055 0.000044 0.000035 0.000028 0.000022 0.000018 0.000014 0.000011 0.000009 0.000007 0.000005 0.000004 0.000003 0.000003 0.000002 0.000002 0.000001 0.000001 0.000001 0.000001 0.000000 0.000000 0.000000 0.000000 -0.000000 -0.000000 -0.000000 -0.000000 -0.000000 -0.000001 -0.000001 -0.000001 -0.000001 -0.000002 -0.000002 -0.000003 -0.000003 -0.000004 -0.000006 -0.000007 -0.000009 -0.000011 -0.000014 -0.000018 -0.000022 -0.000028 -0.000035 -0.000043 -0.000054 -0.000067 -0.000083 -0.000103 -0.000128 -0.000158 -0.000195 -0.000241 -0.000296 -0.000364 -0.000447 -0.000547 -0.000669 -0.000817 -0.000997 -0.001214 -0.001475 -0.001791 -0.002171 -0.002627 -0.003175 -0.003830 -0.004615 -0.005551 -0.006667 -0.007995 -0.009573 -0.011445 -0.013662 -0.016284 -0.019380 -0.023030 -0.027325 -0.032372 -0.038292 -0.045226 -0.053335 -0.062801 -0.073835 -0.086676 -0.101594 -0.118900 -0.138940 -0.162112 -0.188859 -0.219684 -0.255152 -0.295894 -0.342618 -0.396116 -0.457269 -0.527059 -0.606574 -0.697022 -0.799735 -0.916185 -1.047991 -1.196932 -1.364957 -1.554195 -1.766971 -2.005814 -2.273470 -2.572913 -2.907356 -3.280262 -3.695354 -4.156625 -4.668345 -5.235066 -5.861634 -6.553184 -7.315151 -8.153262 -9.073541 -10.082294 -11.186113 -12.391853 -13.706626 -15.137778 -16.692869 -18.379645 -20.206010 -22.179986 -24.309675 -26.603194 -29.068590 -31.713627 -34.545243 -37.567891 -40.778362 -44.149670 -47.585014 -50.812266 -53.384185 -54.678495 -55.007546 -55.623168 -59.180677 -65.691832 -72.023083 -78.368423 -84.887929 -91.620103 -98.573882 -105.748283 -113.138447 -120.737403 -128.536578 -136.525913 -144.693886 -153.027496 -161.512254 -170.132185 -178.869843 -187.706342 -196.621416 -205.593494 -214.599813 -223.616572 -232.619123 -241.582224 -250.480351 -259.288074 -267.980491 -276.533713 -284.925343 -293.134914 -301.144188 -308.937238 -316.500209 -323.820731 -330.887013 -337.686796 -344.206425 -350.430429 -356.341902 -361.923809 -367.161039 -372.042832 -376.565525 -380.736199 -384.577646 -388.137620 -391.509689 -394.883608 -398.603479 -403.158665 -411.605247 -421.940620 -430.773343 -442.626252 -452.394400 -444.652288 -416.263710 -397.804359 -401.643867 -424.111837 -444.819359 -451.385672 -443.276179 -441.814673 -420.915944 -388.161017 -422.133017 -494.237401 -584.675238 -691.415714 -863.777685 -1004.101308 -1103.870184 -1272.930271 -1466.801485 -1530.795071 -1444.745467 -1320.857415 -1253.984353 -1164.446101 -1006.008869 -839.709701 -556.836724 -325.133256 -184.950707 -28.203097 529.121444 1257.824872 1984.213681 2905.453801 3553.280372 4276.567434 5072.982886 5747.610121 6386.871733 6922.987632 7429.019784 7747.069810 7956.723381 8171.896169 -55.226258 -56.786099 -60.570007 -66.144235 -72.138280 -78.395508 -84.888792 -91.613181 -98.564750 -105.738680 -113.128947 -120.728226 -128.527837 -136.517689 -144.686251 -153.020519 -161.506003 -170.126729 -178.865247 -187.702671 -196.618729 -205.591846 -214.599254 -223.617140 -232.620846 -241.585117 -250.484410 -259.293275 -267.986790 -276.541041 -284.933611 -293.144018 -301.154020 -308.947700 -316.511229 -323.832281 -330.899116 -337.699521 -344.219863 -350.444655 -356.356930 -361.939554 -367.177300 -372.059281 -376.581652 -380.751274 -384.591029 -388.148179 -391.515019 -394.879298 -398.602416 -403.224772 -409.617592 -418.232201 -427.121577 -433.688099 -435.406844 -427.275106 -411.538516 -404.164100 -411.002180 -423.574293 -435.342667 -444.057015 -443.237495 -438.296841 -435.312842 -428.014189 -441.047508 -501.295424 -588.874000 -698.629405 -839.517930 -978.927328 -1106.329639 -1247.392110 -1373.203130 -1421.723275 -1384.487388 -1320.154189 -1249.641320 -1154.333005 -1010.617285 -801.378111 -558.194074 -358.307779 -186.906775 20.019094 514.220620 1222.839816 2014.570034 2861.844437 3491.669152 4232.507740 5077.352412 5848.559773 6563.192170 7181.082855 7677.628690 8006.065309 8274.258138 8499.792614 8642.235747 -55.007546 -55.576573 -57.569370 -61.436732 -66.491964 -72.263686 -78.442490 -84.910649 -91.627076 -98.576022 -105.748940 -113.138648 -120.737465 -128.536597 -136.525919 -144.693888 -153.027497 -161.512254 -170.132185 -178.869843 -187.706342 -196.621416 -205.593494 -214.599813 -223.616572 -232.619123 -241.582224 -250.480351 -259.288074 -267.980491 -276.533713 -284.925343 -293.134914 -301.144188 -308.937238 -316.500209 -323.820731 -330.887013 -337.686796 -344.206425 -350.430429 -356.341901 -361.923806 -367.161028 -372.042786 -376.565365 -380.735921 -384.578016 -388.140021 -391.516969 -394.901972 -398.663834 -403.364218 -409.515014 -416.900169 -423.808542 -427.587949 -426.018620 -418.430860 -408.858960 -405.694801 -411.525742 -421.615574 -431.638527 -438.350919 -439.157685 -436.091647 -434.440926 -438.089034 -460.128764 -515.433868 -599.049909 -705.493158 -832.139705 -967.683079 -1103.712596 -1235.760325 -1340.781578 -1387.652720 -1371.293038 -1318.902001 -1242.858239 -1136.397175 -988.932135 -798.730625 -588.977253 -387.026115 -178.710710 108.472247 586.896470 1240.836589 1997.019418 2786.491774 3494.645606 4261.368698 5080.384410 5869.712979 6595.851373 7222.191848 7722.442790 8095.383652 8388.844022 8622.254069 8773.107237 8835.419007 -20119.226326 1639.097844 -16822.371301 -2380.449995 3318.350768 -128.506350 3357.172388 2526.356266 -1059.530671 1411.845445 3325.566119 67.378297 -35657.320729 4984.583208 4088.712639 3269.449088 5273.236585 7723.166238 6176.803793 6970.591819 -9847.810753 -444.677968 2301.951649 -24107.370025 -6216.409755 -36708.279631 -2010.632160 -38536.211869 3506.574841 3843.615884 -16272.849772 3925.675301 3268.189494 1648.602408 -8070.176799 6734.355990 4592.379204 2178.083619 843.465377 4152.914838 -28227.823214 2134.640346 -3781.640129 -3225.435226 -11485.120196 -7921.100360 -38456.946064 -16139.741719 -4328.348433 -26984.705608 -5817.849339 3697.292187 -40846.981022 5837.064120 -4000.993803 4740.135101 858.152627 2005.951734 5727.737430 6307.210085 -7897.242514 -28055.926476 2883.960245 -27755.254443 1654.087533 -13849.541835 -25452.075847 2751.536663 -2300.610761 4725.236241 6695.045563 58513.883124 -18453.453313 1434.329544 4602.610218 5070.534123 1553.624760 7051.512906 4945.040904 -358.238187 -4606.372432 -42267.400211 13112.755798 -31792.545266 -39708.395913 -10168.699245 19849.514582 46658.210855 -14892.958667 2845.114894 1204.907930 -31429.852831 -43094.346609 3928.439458 -29941.467385 3655.553357 100.801989 15753.358113 -613.886442 -9276.512196 -41251.542412 -4371.723224 -41880.919912 -18222.410130 -32153.925757 179.804925 7310.667108 40365.295216 4117.094208 -28190.217090 -41498.760600 -19909.022199 6169.195768 -40277.376634 -38753.870236 -1584.372454 1858.176292 2927.179791 -24038.942229 4974.952770 -41871.252059 -897.398627 8032.160960 -2401.752710 -8445.586659 29819.342140 7664.466354 -26351.577321 62010.144194 -36477.887213 -11297.972693 -36044.413892 -13781.875907 -17803.108707 -38091.789507 -35915.188030 -34894.840063 -7470.474154 -1271.899027 -15948.109550 -29297.112750 -42300.728844 46475.409631 8742.508251 8431.204358 1858.028068 57160.707794 5944.735143 -768.692056 -42967.700533 -12170.161592 -38905.547647 -13945.772414 -39271.317541 -10000.181783 -11779.553759 34114.757449 -14322.094686 -45200.839498 2613.453194 8456.513288 5441.913899 6468.650520 -37161.673508 -22448.230704 -44032.327890 9277.799633 -37572.259460 -32880.829954 -6453.222059 -38769.745245 -12389.446676 -40796.887324 -45241.019958 -19697.375130 -44894.106123 -9789.283230 -14746.098529 -4128.511167 -7722.730923 48197.438447 9267.087033 7025.269545 9530.975495 -13567.347664 -33419.686217 -35127.115892 -45097.334905 6910.811131 8277.448892 -30283.684068 3158.570912 7114.438937 4600.898436 8097.365940 -40745.043355 48839.275321 -40681.884133 9849.589176 -37453.043443 976.682349 -24641.198897 4427.263712 8527.510999 7545.360928 8204.190321 1635.340054 8151.789634 15621.523211 -38613.964092 8878.358062 7743.601684 -3754.746831 11103.440635 9412.564019 -38490.939792 888.215228 -4636.091205 -13713.252663 7166.476305 9176.578197 -31078.261815 -26281.775009 9978.337658 -42449.596150 7713.443172 8054.909413 -8659.929807 9546.583283 10236.615380 9237.283231 -25064.991959 8394.862434 8235.436582 9073.983908 1024.711944 -45805.312422 -10435.495766 4418.647927 47158.663938 -28802.052590 10979.550157 7329.617782 -25509.700488 -6063.421737 60238.655195 8381.929847 9926.601360 6809.928481 9024.335382 7737.708636 8862.567566 8701.286027 8575.740093 9905.580792 8019.318950 52043.602365 11058.234380 11585.595390 9407.015611 6485.391382 -6481.144643 9117.531887 7139.115649 -9802.096414 9266.051877 9303.814860 8492.108473 5634.279202 8196.351881 -10191.135015 8556.817301 8956.652407 10623.456932 6081.231288 -877.166250 10242.495135 10776.087195 11732.132298 -44082.268758 7747.694637 9892.479275 8291.427625 9722.500503 10488.862213 7451.635650 10933.416506 8492.118855 9368.031065 7707.930474 8923.691125 9021.395601 8288.660642 10137.942307 8043.456344 9921.084169 11516.524979 10100.500963 10430.755195 11181.701117 8084.699216 9645.359194 -3084.073436 -37558.391234 8794.445206 8453.250754 9928.955758 8725.068838 9018.283430 9111.395281 10385.394288 10731.919172 58149.002189 8266.928618 8796.193941 8826.556605 10528.155519 -1300.988128 8316.406937 11350.201983 7944.213517 10166.334264 12116.069153 9316.678185 9186.388549 -4350.490667 8700.113228 8930.698929 10504.648361 9430.934280 11335.813859 10633.058587 11549.512995 10071.997850 9738.120035 11272.364457 -5408.488456 27121.579159 41362.495867 58258.541177 8538.394014 8710.473667 6419.382291 7467.381466 7358.061918 8465.418356 12106.795422 11298.939193 11291.449749 9702.667081 8418.357172 10914.696751 8719.997081 12363.655044 10435.216751 11229.795333 -9420.778419 12106.831884 10393.419872 10585.114780 10455.661918 11761.708846 7417.114059 11775.004990 11663.408724 11542.222271 11566.941050 13333.176304 10649.557729 7392.497424 7826.055073 13129.631715 10434.207705 11902.995076 9579.010527 6995.573551 11703.655814 10006.962207 10795.502093 9407.949225 10214.077969 8991.246748 11193.531353 11286.410160 10595.101861 8940.465253 10018.308497 7874.017902 7437.319527 10149.398078 12996.886436 10341.064520 10438.074120 11105.454807 11683.924219 10821.007977 9413.642151 7956.212381 62635.128578 -1756.465860 9267.013987 6861.695048 11728.384719 10122.514955 7607.967798 11415.087907 12412.150989 8133.666149 8608.321986 8888.081275 11502.152973 7746.712546 11025.708453 10011.402228 11257.477849 11139.382893 11780.476385 11737.287418 9874.083111 8316.526058 11614.167464 8614.680059 11154.251631 5787.362022 7148.651364 9239.665117 9498.489443 9359.806302 9934.199494 8454.484358 9886.563572 11345.362940 7789.964705 12086.450266 11041.012990 11961.854538 11447.960170 10719.723278 10017.077871 -3409.370279 8203.179363 6249.862230 7443.870470 6435.752986 8394.119815 7054.973200 7070.974816 9593.081144 6361.025581 7500.597771 11982.274189 7904.086518 9496.600313 12784.855307 10612.646514 11669.014680 12335.560381 11304.777144 -11852.435726 11760.360649 9248.341659 7573.271762 7875.737369 5500.646101 7667.230381 6016.692592 8501.094335 10589.155251 11069.098437 7195.945579 8857.125848 8084.667611 12467.513109 10169.557580 11229.724209 12584.632432 1776.479920 12304.018247 10394.598279 -8539.421684 8264.817041 11447.882828 7208.477050 7831.435661 10757.987228 6672.545680 10759.158794 8096.459726 9521.196644 10099.678747 10160.155583 9723.501246 11253.060635 12268.998366 13222.177538 12271.442333 11804.874664 12359.234691 2627.344756 11322.424190 7248.847927 9678.196497 10060.985835 9968.859583 8262.925550 10477.927423 8869.300838 11166.858195 8392.906987 11331.908584 11257.523057 9670.250185 12828.918637 11305.014343 10303.557767 9237.530429 11683.850743 9603.818662 10427.205247 10804.936665 11956.589574 10662.425379 7577.798417 10010.671757 6074.104121 9200.779610 9357.107308 6620.042756 9930.740516 12299.225520 10686.719381 8957.859753 10397.407891 11316.443844 10074.627837 11346.675979 12596.446496 11024.527333 5377.904646 -3066.913906 7284.409318 5819.969704 7576.620245 7273.727477 6225.103147 6260.878295 8877.167635 9084.958558 10985.998029 10321.597436 10685.552220 8978.498941 8278.532677 11013.340254 11967.754304 12407.419750 11853.134117 11816.780074 8042.115631 10829.656851 5336.551795 5465.730843 4346.268068 8403.984698 9692.454428 8207.120353 8209.473686 8514.894388 5774.465822 11315.861141 7680.563612 10974.176636 11866.898068 11871.362036 11447.326888 11455.276952 11868.607236 12872.585442 11663.026457 12379.557162 2542.357771 5333.932490 3181.731772 5755.224013 9059.637345 9390.852507 6488.222220 8297.091219 6756.944429 7445.472198 9307.517035 10547.073915 7274.041830 11486.573649 11828.430582 12643.628373 11008.901078 11624.543571 12516.928527 7617.198195 3184.996799 3024.509742 2964.066421 4778.186994 3030.818428 5909.944356 7482.199388 10505.296222 5812.704745 7615.244873 6731.630349 6795.674017 8886.921026 8260.115772 10724.963547 11705.552153 8933.904146 12548.533021 7212.504038 12756.685975 3277.854115 4323.548708 2993.553944 2494.678028 8095.416721 4240.778918 6273.294382 6217.698307 6044.507296 7301.500761 5186.082910 7613.519167 6708.323609 10778.617979 8619.041538 13093.971087 9932.306416 12875.381766 9811.428982 12197.842176 3282.012125 3161.801493 3103.134920 3192.539023 3472.186288 4517.292332 4965.426179 6739.352128 5722.823472 6379.470113 5086.837977 7044.383185 11711.075196 7230.407425 8294.308442 10598.478199 9594.796860 9435.098729 10902.203919 9346.334912 3193.872404 2791.576995 3858.404420 2570.331130 3416.439277 5404.745940 3730.176480 4643.833172 5851.973988 4712.236084 7340.907770 6967.581533 6549.280696 6432.280534 9563.745999 9048.727787 9113.018938 12539.054961 8679.879850 8495.452147 3828.828023 2540.035617 2908.207621 3000.802563 4217.186057 4004.391539 4969.321480 6529.193667 5682.506022 6583.419739 7330.389169 8325.766194 8007.377512 9787.644537 10053.880531 13194.535450 12330.275516 13618.498121 9130.507271 9454.083189 6697.