<VTKFile type="PolyData">
<PolyData>
<Piece NumberOfPoints="6715" NumberOfVerts="6715" NumberOfLines="0" NumberOfStrips="0" NumberOfPolys="0">
<PointData>
<DataArray type="Float64" Name="Pressure" format="ascii">
 8662.386146 8897.884721 9298.335761 9832.374409 10251.690659 10006.408479 9575.154528 9142.714920 8479.253356 7466.463855 6689.528257 7494.402632 7574.872067 -700.322869 -15235.105075 -21043.613586 -21430.352156 -13406.391119 4984.596181 12841.688142 6633.385561 5382.384613 7210.282981 7467.716295 6687.085955 6540.298833 7132.478235 7827.913412 9122.797246 10248.560504 10382.767526 9955.237741 9617.864622 9615.209159 9832.064480 10301.427818 11028.696463 11187.733500 10720.570165 10543.875050 11015.332615 12006.917100 13280.015570 14615.767701 15145.271889 14287.652346 13745.170522 14123.380835 14709.356246 14922.822358 14950.325426 14793.706346 14093.667949 13379.580905 13192.997817 13452.956428 13955.481784 13926.375029 13569.990611 13624.925548 14096.136651 14480.270300 14404.166999 14132.724994 14130.275059 14360.627813 14467.163704 14224.007080 13660.604619 13248.948581 13273.808259 13532.497822 13895.872956 14209.660142 14346.709025 14317.505976 14304.889517 14282.615343 14074.099426 13857.552503 13885.289578 14126.450681 14328.053961 14390.254096 14323.145840 14264.375362 14548.602723 15136.907243 15493.430554 15287.612516 15065.532208 15396.816066 15986.274212 16477.505991 16771.265533 16937.214812 17179.903884 17179.999555 16861.330370 16570.866527 16485.174940 16871.859966 17532.293423 18181.229525 18530.646641 18636.181975 19043.973030 19985.500489 20810.634638 20641.866227 19491.497987 18577.577116 18593.718040 19229.323216 19864.054275 20269.841945 20566.987693 20793.283142 20824.478796 20556.778980 20006.491505 19520.242145 19322.549641 19549.758113 20039.517512 20266.523956 19957.400924 19757.904511 19902.909821 19981.159188 19824.575222 19564.831604 19850.625173 20587.553840 21144.598177 21385.018053 21404.418150 21430.418617 21330.359955 20919.173438 20690.282366 20830.626950 20888.879200 20534.064452 20102.742081 20028.620998 20099.869530 19985.021631 19738.538908 19529.842035 19322.245625 19075.712791 18819.625647 18585.469233 18367.995269 18219.974255 18167.438121 18077.306124 17792.509785 17449.587936 17411.258802 17554.088311 17639.313332 17563.159882 17376.686891 17141.265199 16961.570094 16816.882501 16895.327767 17179.114509 17304.151915 17307.112742 17193.803018 17018.226120 16775.543422 16577.917416 16342.834843 16121.758436 15977.519415 15904.609818 15853.917347 15788.589972 15779.409042 15688.999369 15461.834391 15152.272654 14846.345712 14704.599357 14729.312610 14792.878779 14677.238025 14257.835006 13729.732888 13506.456662 13639.544011 13793.467105 13695.953253 13364.228408 12838.787347 12194.117045 11645.517555 7858.021753 8114.241885 8372.925309 8773.897716 9267.198510 9697.773739 9761.138341 9470.541387 9134.571795 8779.491328 8138.349196 7337.188800 7121.540288 7638.954960 6385.095888 -697.077030 -7245.330224 -7936.401578 -2630.226894 5599.386428 10092.620336 7195.518739 4378.124203 4167.975842 5106.625470 6059.235212 7034.059216 7778.093235 8404.247323 9243.650145 9959.306050 10096.414099 9850.331841 9719.026943 9792.719311 9987.223670 10390.068904 10972.657609 11302.091358 11187.191334 10984.872107 11080.762478 11622.195067 12533.989521 13579.772812 14134.617411 13916.775141 13873.148551 14404.602326 14939.389608 15067.413703 14993.399091 14726.789926 14204.283120 13800.096032 13657.329393 13628.207880 13671.769445 13677.183706 13661.138883 13809.717335 14140.756757 14385.898990 14351.027835 14193.054317 14141.078568 14312.027953 14467.259274 14287.560671 13961.959237 13861.299154 13959.953833 14098.636267 14310.339232 14535.961765 14629.238137 14636.188431 14675.759992 14649.933918 14458.974894 14263.755881 14244.663659 14386.568086 14565.004250 14712.619212 14776.613609 14800.840596 15006.926975 15428.218017 15671.551193 15559.771453 15506.675286 15789.735905 16289.393458 16791.607244 17102.253991 17278.812196 17483.856531 17571.628728 17392.532503 17154.108888 17001.730496 17097.483322 17541.823775 18183.948276 18629.953833 18846.567741 19243.307421 20035.198853 20747.082619 20645.636465 19873.001754 19348.322293 19390.032169 19739.562301 20177.010487 20506.286760 20714.495877 20855.250458 20823.179113 20565.976734 20160.104259 19798.360208 19675.821825 19886.929547 20247.827975 20422.873207 20147.713005 19537.883297 19186.720032 19386.687315 19769.034833 19975.220234 20360.715546 20808.825612 21041.647910 21174.103496 21298.822209 21416.473815 21379.894383 21165.588103 21045.570665 21085.751161 21017.030218 20766.535150 20493.339836 20397.461275 20342.181652 20097.613210 19798.451758 19584.172014 19390.713651 19176.363222 18927.524373 18674.684734 18460.591374 18296.374220 18162.686529 18003.375334 17773.603835 17534.007263 17435.825120 17489.916042 17536.419190 17480.012754 17374.567638 17238.538840 17086.516481 17006.595069 17071.767343 17301.030818 17508.043774 17502.395375 17253.447483 16927.537936 16691.581109 16505.600311 16279.822577 16076.548897 15950.770671 15866.291703 15773.415348 15698.809177 15658.301486 15560.243310 15364.665994 15090.113509 14783.152353 14535.851003 14460.216705 14464.714486 14302.970816 13888.776627 13446.203299 13272.794574 13346.945493 13419.495911 13286.966280 12882.103538 12331.934145 11783.607695 11338.337770 11054.502789 7534.701449 7654.003902 7883.615737 8189.339567 8656.743115 9210.932581 9554.374519 9548.777177 9282.788546 8972.000217 8630.807125 8114.893142 7433.808309 7043.865413 7786.841274 9990.675357 11658.436979 11562.870203 14597.619142 19010.498901 19413.457525 14445.759501 7770.849359 3812.967296 3312.446383 4493.985658 6051.208843 7287.641956 8029.971127 8620.732184 9253.693663 9742.585828 9926.702224 9906.119457 9900.423998 9927.520429 10044.209130 10361.724882 10796.868163 11088.304570 11121.401086 11072.309650 11193.203640 11640.040840 12377.518244 13211.139080 13785.326483 13950.104078 14144.151514 14598.414538 14952.641559 14992.392103 14866.934210 14601.452167 14278.221933 14109.078091 14022.902081 13852.169386 13692.649506 13646.723372 13692.760350 13813.480932 14000.532698 14138.199478 14162.247578 14156.600156 14220.940594 14366.232189 14445.899498 14348.864834 14215.702839 14228.934320 14326.260799 14420.880910 14543.325045 14680.646311 14731.404908 14723.958962 14744.363741 14725.771466 14605.136854 14481.147906 14464.531667 14534.496244 14654.935070 14814.530065 14952.130843 15063.868170 15259.285266 15549.409947 15736.225641 15745.617589 15805.898448 16084.135463 16537.893159 17010.741614 17326.338327 17497.522268 17637.468520 17735.372313 17663.699222 17497.875409 17397.158915 17457.188757 17773.489639 18277.128860 18713.959648 19032.038721 19437.462029 20026.302211 20518.751259 20553.327613 20218.879765 19967.448791 19978.338012 20152.533611 20365.577917 20519.522129 20638.227592 20732.104725 20682.284742 20485.090455 20233.949422 20033.868105 20020.284140 20208.347689 20468.164807 20639.112729 20509.800714 20034.490805 19701.720924 19840.768099 20210.105472 20477.115071 20715.115806 20905.761523 21005.480108 21115.703591 21281.077498 21410.345379 21409.452078 21312.963311 21248.606154 21247.925751 21172.940911 20967.516757 20724.949958 20577.989755 20429.233530 20168.517927 19889.659964 19657.367029 19439.919033 19217.855936 18983.369904 18747.531548 18537.327953 18345.683082 18154.709000 17965.959311 17770.978097 17591.770209 17482.762306 17465.647063 17470.362307 17436.993865 17380.362521 17309.609299 17219.912408 17172.438509 17213.288967 17341.368013 17472.998591 17429.987589 17191.976053 16889.465288 16649.255590 16441.963412 16227.241555 16042.404729 15918.679954 15818.916445 15705.278063 15603.229119 15525.017970 15413.019178 15226.150713 14985.670400 14730.538590 14512.893361 14398.116352 14331.412790 14144.163501 13782.589162 13416.561643 13237.874239 13218.494967 13179.488616 12968.755965 12557.597525 12068.324059 11611.526673 11217.350892 10957.507970 10855.758538 11645.517555 12108.453431 12450.847914 12327.033236 11830.530782 11198.273597 10566.585332 9914.178129 9179.830365 8390.116910 7686.798357 7006.966679 6342.806957 5698.626174 5193.826288 4779.786830 4289.488085 3738.710691 3300.369510 2900.055560 2770.218668 2727.480205 2699.325055 2688.400701 2673.887534 2652.465260 2620.230211 2573.381952 2511.518424 2435.785346 2348.059273 2250.576189 2145.685620 2035.690633 1922.747398 1808.802740 1695.554701 1584.430958 1476.583564 1372.897870 1274.012276 1180.345219 1092.126119 1009.427683 932.197588 860.288085 793.482594 731.518675 674.107162 620.947481 571.739377 526.191435 484.026848 444.986917 408.832769 375.345721 344.326701 315.595024 288.986812 264.353234 241.558728 220.479305 201.000989 183.018448 166.433803 151.155638 137.098189 124.180679 112.326811 101.464365 91.524886 82.443456 74.158519 66.611736 59.747886 53.514769 47.863128 42.746570 38.121493 33.946999 30.184818 26.799209 23.756872 21.026843 18.580390 16.390905 14.433794 12.686364 11.127710 9.738601 8.501371 7.399810 6.419047 5.545441 4.766438 4.070347 3.445822 2.880386 2.353665 1.846520 1.582260 11054.502789 11276.980445 11566.292715 11709.775352 11556.669459 11164.482162 10643.630799 10051.796943 9422.823173 8752.372186 8038.676305 7351.926473 6717.135412 6107.559868 5517.189864 5010.494293 4566.670260 4105.210211 3646.724814 3255.041551 2962.432415 2807.869785 2736.903514 2704.693899 2688.393782 2673.423644 2653.023775 2620.977254 2574.101952 2512.168389 2436.343037 2348.513442 2250.922939 2145.927430 2035.834203 1922.802112 1808.779768 1695.466238 1584.289476 1476.401165 1372.685781 1273.780520 1180.102426 1091.879461 1009.182899 931.959068 860.059009 793.265093 731.314002 673.915871 620.769587 571.574503 526.038941 483.885930 444.856694 408.712339 375.234209 344.223286 315.498956 288.897420 264.269927 241.480991 220.406692 200.933118 182.954986 166.374464 151.100173 137.046374 124.132316 112.281720 101.422376 91.485842 82.407207 74.124919 66.580646 59.719170 53.488293 47.838762 42.724189 38.100973 33.928222 30.167668 26.783576 23.742649 21.013929 18.568688 16.380323 14.424246 12.677769 11.119990 9.731686 8.495197 7.394317 6.414189 5.541202 4.762884 4.067816 3.445549 2.886650 2.384160 1.941105 1.649423 1.528438 10855.758538 10927.814100 11084.528817 11257.680522 11311.348719 11157.976300 10818.522412 10350.550153 9792.774488 9183.080944 8537.427916 7869.455801 7214.622890 6590.688751 5994.614335 5433.398789 4923.864167 4459.013258 4013.136555 3600.065752 3250.969426 2992.310207 2831.475426 2747.054288 2707.774763 2687.741549 2672.617684 2652.462709 2620.329651 2573.423032 2511.531306 2435.787928 2348.059874 2250.576494 2145.685777 2035.690701 1922.747423 1808.802748 1695.554704 1584.430958 1476.583564 1372.897870 1274.012276 1180.345219 1092.126119 1009.427683 932.197588 860.288085 793.482594 731.518675 674.107162 620.947481 571.739377 526.191435 484.026848 444.986917 408.832769 375.345721 344.326701 315.595024 288.986812 264.353234 241.558728 220.479305 201.000989 183.018448 166.433803 151.155638 137.098189 124.180679 112.326811 101.464365 91.524886 82.443456 74.158519 66.611736 59.747886 53.514769 47.863128 42.746570 38.121493 33.946999 30.184818 26.799209 23.756872 21.026843 18.580390 16.390905 14.433795 12.686365 11.127710 9.738602 8.501375 7.399823 6.419091 5.545586 4.766912 4.071902 3.450923 2.897055 2.409610 2.002111 1.699612 1.544432 1.499056 1.582260 1.429654 1.193050 1.010758 0.862314 0.736567 0.628822 0.536220 0.456629 0.388288 0.329688 0.279515 0.236623 0.200014 0.168815 0.142268 0.119716 0.100587 0.084387 0.070689 0.059125 0.049378 0.041175 0.034282 0.028500 0.023656 0.019606 0.016224 0.013405 0.011058 0.009108 0.007491 0.006150 0.005042 0.004127 0.003373 0.002752 0.002242 0.001823 0.001481 0.001200 0.000972 0.000785 0.000633 0.000510 0.000410 0.000329 0.000264 0.000211 0.000169 0.000135 0.000107 0.000085 0.000068 0.000054 0.000042 0.000033 0.000026 0.000021 0.000016 0.000013 0.000010 0.000008 0.000006 0.000005 0.000004 0.000003 0.000002 0.000002 0.000001 0.000001 0.000001 0.000001 0.000000 0.000000 0.000000 0.000000 0.000000 0.000000 0.000000 0.000000 0.000000 -0.000000 -0.000000 -0.000000 -0.000000 -0.000000 -0.000000 -0.000000 -0.000000 -0.000000 -0.000001 -0.000001 -0.000001 -0.000001 -0.000002 -0.000002 -0.000003 -0.000003 -0.000004 -0.000005 -0.000007 -0.000008 -0.000011 -0.000014 -0.000017 -0.000022 -0.000027 -0.000034 -0.000043 -0.000054 -0.000067 -0.000084 -0.000105 -0.000131 -0.000163 -0.000202 -0.000251 -0.000311 -0.000384 -0.000474 -0.000584 -0.000718 -0.000882 -0.001082 -0.001324 -0.001619 -0.001975 -0.002406 -0.002926 -0.003554 -0.004308 -0.005215 -0.006302 -0.007603 -0.009159 -0.011015 -0.013225 -0.015854 -0.018975 -0.022673 -0.027048 -0.032216 -0.038309 -0.045481 -0.053909 -0.063795 -0.075372 -0.088907 -0.104703 -0.123106 -0.144511 -0.169363 -0.198168 -0.231499 -0.269999 -0.314393 -0.365495 -0.424218 -0.491580 -0.568718 -0.656898 -0.757524 -0.872153 -1.002505 -1.150477 -1.318157 -1.507835 -1.722019 -1.963450 -2.235110 -2.540244 -2.882368 -3.265282 -3.693086 -4.170185 -4.701307 -5.291503 -5.946163 -6.671013 -7.472123 -8.355903 -9.329106 -10.398814 -11.572436 -12.857689 -14.262585 -15.795405 -17.464675 -19.279133 -21.247700 -23.379449 -25.683605 -28.169636 -30.847683 -33.730087 -36.836598 -40.211533 -43.999254 -48.445274 -51.124251 1.528438 1.480257 1.347944 1.167590 1.003039 0.859430 0.735191 0.627964 0.535577 0.456102 0.387841 0.329304 0.279184 0.236338 0.199768 0.168603 0.142087 0.119560 0.100454 0.084273 0.070592 0.059043 0.049308 0.041115 0.034232 0.028457 0.023620 0.019576 0.016198 0.013383 0.011040 0.009093 0.007478 0.006140 0.005033 0.004120 0.003367 0.002747 0.002238 0.001820 0.001478 0.001198 0.000970 0.000784 0.000632 0.000509 0.000409 0.000329 0.000263 0.000211 0.000168 0.000134 0.000107 0.000085 0.000067 0.000053 0.000042 0.000033 0.000026 0.000021 0.000016 0.000013 0.000010 0.000008 0.000006 0.000005 0.000004 0.000003 0.000002 0.000002 0.000001 0.000001 0.000001 0.000001 0.000000 0.000000 0.000000 0.000000 0.000000 0.000000 0.000000 0.000000 0.000000 -0.000000 -0.000000 -0.000000 -0.000000 -0.000000 -0.000000 -0.000000 -0.000000 -0.000000 -0.000001 -0.000001 -0.000001 -0.000001 -0.000002 -0.000002 -0.000002 -0.000003 -0.000004 -0.000005 -0.000007 -0.000008 -0.000011 -0.000013 -0.000017 -0.000022 -0.000027 -0.000034 -0.000043 -0.000054 -0.000067 -0.000084 -0.000105 -0.000131 -0.000163 -0.000202 -0.000251 -0.000310 -0.000383 -0.000473 -0.000583 -0.000717 -0.000881 -0.001080 -0.001322 -0.001616 -0.001972 -0.002402 -0.002922 -0.003548 -0.004301 -0.005207 -0.006292 -0.007592 -0.009145 -0.010999 -0.013206 -0.015832 -0.018949 -0.022642 -0.027012 -0.032174 -0.038260 -0.045424 -0.053842 -0.063718 -0.075283 -0.088804 -0.104584 -0.122970 -0.144354 -0.169183 -0.197962 -0.231264 -0.269731 -0.314088 -0.365149 -0.423825 -0.491135 -0.568215 -0.656331 -0.756886 -0.871437 -1.001702 -1.149580 -1.317155 -1.506719 -1.720778 -1.962072 -2.233585 -2.538559 -2.880509 -3.263237 -3.690839 -4.167723 -4.698614 -5.288564 -5.942963 -6.667536 -7.468353 -8.351825 -9.324704 -10.394073 -11.567343 -12.852230 -14.256747 -15.789177 -17.458045 -19.272090 -21.240225 -23.371496 -25.675035 -28.160004 -30.835535 -33.710645 -36.793961 -40.092109 -43.592832 -47.170893 -49.717420 -50.706260 1.499056 1.485961 1.425713 1.301692 1.150410 0.997925 0.858394 0.735372 0.628458 0.536109 0.456595 0.388278 0.329685 0.279514 0.236623 0.200014 0.168815 0.142268 0.119716 0.100587 0.084387 0.070689 0.059125 0.049378 0.041175 0.034282 0.028500 0.023656 0.019606 0.016224 0.013405 0.011058 0.009108 0.007491 0.006150 0.005042 0.004127 0.003373 0.002752 0.002242 0.001823 0.001481 0.001200 0.000972 0.000785 0.000633 0.000510 0.000410 0.000329 0.000264 0.000211 0.000169 0.000135 0.000107 0.000085 0.000068 0.000054 0.000042 0.000033 0.000026 0.000021 0.000016 0.000013 0.000010 0.000008 0.000006 0.000005 0.000004 0.000003 0.000002 0.000002 0.000001 0.000001 0.000001 0.000001 0.000000 0.000000 0.000000 0.000000 0.000000 0.000000 0.000000 0.000000 0.000000 -0.000000 -0.000000 -0.000000 -0.000000 -0.000000 -0.000000 -0.000000 -0.000000 -0.000000 -0.000001 -0.000001 -0.000001 -0.000001 -0.000002 -0.000002 -0.000003 -0.000003 -0.000004 -0.000005 -0.000007 -0.000008 -0.000011 -0.000014 -0.000017 -0.000022 -0.000027 -0.000034 -0.000043 -0.000054 -0.000067 -0.000084 -0.000105 -0.000131 -0.000163 -0.000202 -0.000251 -0.000311 -0.000384 -0.000474 -0.000584 -0.000718 -0.000882 -0.001082 -0.001324 -0.001619 -0.001975 -0.002406 -0.002926 -0.003554 -0.004308 -0.005215 -0.006302 -0.007603 -0.009159 -0.011015 -0.013225 -0.015854 -0.018975 -0.022673 -0.027048 -0.032216 -0.038309 -0.045481 -0.053909 -0.063795 -0.075372 -0.088907 -0.104703 -0.123106 -0.144511 -0.169363 -0.198168 -0.231499 -0.269999 -0.314393 -0.365495 -0.424218 -0.491580 -0.568718 -0.656898 -0.757524 -0.872153 -1.002505 -1.150477 -1.318157 -1.507835 -1.722019 -1.963450 -2.235110 -2.540244 -2.882368 -3.265282 -3.693086 -4.170185 -4.701307 -5.291503 -5.946163 -6.671013 -7.472123 -8.355903 -9.329106 -10.398814 -11.572436 -12.857689 -14.262585 -15.795404 -17.464669 -19.279116 -21.247646 -23.379275 -25.683036 -28.167781 -30.841638 -33.710388 -36.772377 -40.002727 -43.308182 -46.423537 -48.910699 -50.160441 -50.475963 -51.124251 -54.654031 -61.131984 -67.453098 -73.808475 -80.358204 -87.141990 -94.170233 -101.443415 -108.958047 -116.708400 -124.686979 -132.884629 -141.290527 -149.892160 -158.675290 -167.623940 -176.720383 -185.945149 -195.277045 -204.693190 -214.169068 -223.678597 -233.194219 -242.687015 -252.126837 -261.482470 -270.721815 -279.812099 -288.720098 -297.412392 -305.855631 -314.016847 -321.863856 -329.365840 -336.494348 -343.225120 -349.541501 -355.440709 -360.944449 -366.114564 -371.070966 -376.003302 -381.165026 -386.845435 -393.301069 -400.663767 -408.457368 -414.919948 -418.795803 -414.974139 -416.667782 -404.199878 -311.653090 -336.478842 -395.109205 -438.409715 -463.850202 -427.085525 -371.772818 -340.454432 -281.049253 -309.295727 -421.940972 -538.117768 -521.203838 -335.376873 -180.661628 -132.319169 -146.552115 -251.007556 -577.830692 -912.572728 -1130.338385 -1353.954684 -1478.192919 -1871.014826 -2547.479886 -2779.802932 -2378.003638 -1382.779044 -155.522855 448.114728 649.603668 928.061837 1760.392463 2798.887538 3704.506963 3344.109513 2881.724030 3376.465290 4279.355315 5447.624159 6631.159779 7344.577397 7792.317736 8584.037160 9761.395023 10358.475398 9681.161563 8662.386146 -50.706260 -52.259887 -56.024589 -61.578394 -67.565979 -73.834213 -80.357958 -87.133983 -94.159977 -101.432632 -108.947313 -116.697940 -124.676914 -132.875047 -141.281512 -149.883790 -158.667647 -167.617103 -176.714433 -185.940164 -195.273103 -204.690367 -214.167435 -223.678222 -233.195165 -242.689339 -252.130589 -261.487691 -270.728536 -279.820341 -288.729871 -297.423694 -305.868445 -314.031141 -321.879569 -329.382873 -336.512525 -343.244119 -349.560735 -355.459116 -360.960238 -366.125044 -371.072788 -375.993221 -381.140554 -386.805663 -393.255324 -400.624159 -408.609582 -415.706862 -419.926679 -420.286663 -417.664533 -415.731908 -389.350212 -372.158157 -425.950218 -482.220361 -480.376110 -450.390011 -416.750840 -368.314915 -322.495639 -352.079604 -468.109914 -592.676084 -587.240151 -435.287455 -292.051445 -235.724115 -267.499816 -342.976964 -520.938744 -806.250572 -1049.746246 -1265.182431 -1484.813780 -1854.215401 -2270.499761 -2345.967412 -1973.318885 -1393.875425 -688.028912 -4.180308 499.323354 935.271930 1841.670215 2965.431029 3737.429050 3477.330042 3128.036310 3538.354590 4306.473352 5476.806605 6678.681556 7494.747442 8097.386421 8716.562217 9503.645219 9878.315742 9264.769608 8369.193426 7858.021753 -50.475963 -51.044178 -53.029536 -56.881295 -61.922734 -67.690809 -73.881643 -80.380645 -87.148877 -94.172346 -101.444063 -108.958246 -116.708461 -124.686998 -132.884634 -141.290529 -149.892160 -158.675290 -167.623940 -176.720383 -185.945149 -195.277045 -204.693190 -214.169068 -223.678597 -233.194219 -242.687015 -252.126837 -261.482470 -270.721815 -279.812099 -288.720098 -297.412392 -305.855631 -314.016847 -321.863856 -329.365840 -336.494348 -343.225118 -349.541498 -355.440703 -360.944444 -366.114580 -371.071062 -376.003280 -381.163446 -386.839910 -393.297122 -400.660648 -408.699144 -416.165720 -420.857961 -422.477475 -423.502929 -425.990435 -424.694153 -419.769347 -443.591420 -483.731421 -497.431389 -464.816752 -417.313881 -377.804460 -361.296704 -381.665885 -456.180051 -553.182597 -575.483927 -480.211620 -376.372780 -339.675379 -357.704189 -418.376077 -560.195268 -764.130974 -943.615863 -1084.220419 -1269.422832 -1572.500331 -1837.059954 -1827.833833 -1556.418027 -1212.628270 -765.132839 -206.744785 335.695958 898.078759 1743.656370 2727.953467 3319.411967 3256.912281 3159.782814 3578.551426 4366.021299 5473.993221 6633.530459 7501.885239 8037.638357 8442.049552 8885.261489 9077.829837 8733.947891 8140.885267 7701.298911 7534.701449 5993.618998 2777.201083 3937.837419 1280.606738 3176.768449 2283.480247 3387.852509 1718.536360 1573.733719 2984.898388 4014.650239 973.967596 5686.346050 6270.160113 6503.559228 3275.021618 6267.255167 10363.725582 8731.766194 9749.193562 1985.560682 779.879462 1574.672964 3484.942433 2175.565851 5810.193090 855.057412 5301.497515 3633.678050 5125.518397 4692.714867 4331.671681 3959.758034 1604.108208 4278.694842 8792.845382 5275.748956 4846.663710 10295.632391 10271.653833 5331.639816 1925.866097 734.257057 1903.757473 4948.645948 5035.162643 -16162.575558 3079.646853 4312.227077 4876.434853 3105.419942 4217.112193 6604.885851 6909.451354 4594.649203 10038.604796 9417.566021 7506.433057 9937.363184 7831.615639 5268.141230 6347.734107 5351.334926 3682.291303 5070.757306 3819.620605 4195.572423 2587.147039 2642.082687 5733.383703 9941.542274 42167.206635 2138.808198 1892.222808 5798.733420 6658.904157 6964.834808 10120.946775 8809.666521 10495.503428 -5926.140923 6755.881765 5372.059694 5868.237172 6209.005352 7737.011153 11140.417288 14742.385975 5678.618663 2787.991372 5892.454960 5574.511626 7727.770309 4729.244184 5279.467642 9802.829178 3739.445661 12477.507286 10511.742097 9599.422094 6623.504766 9480.832188 3190.804224 3272.510557 5817.731926 5738.970321 7929.926364 19339.433858 4589.004795 6941.696904 7191.279879 6710.411545 7206.197019 6158.629281 6048.455045 7412.830866 3357.635203 4161.626502 8381.110739 6204.957286 6893.746185 3571.212682 6217.088382 6568.408606 8601.536117 12811.199979 8848.763673 6054.254132 23231.375524 -17162.659482 4547.722787 5529.116480 4992.271365 8647.080675 -20015.628659 -17840.398629 6943.897943 5672.354076 4472.546117 8953.140594 -21045.743979 2116.790182 29734.473103 7324.944586 6227.058413 4955.356110 28207.451975 10154.842579 8380.907250 -18852.875439 2972.239679 5965.969625 4873.935393 -13254.007418 6798.869845 6414.125033 34276.667191 3527.362395 2152.259376 6230.394268 6905.053183 7642.492599 7704.890909 -16285.226393 -17553.004892 4695.392598 8103.483547 -18682.420616 5866.610637 4481.539496 -19390.926978 4782.825676 6521.023324 5987.388906 6611.832114 -14661.915608 7305.433263 5833.836596 5305.184027 9744.499954 14280.782445 7474.728324 5381.172158 10586.132112 5402.935149 -22941.418724 -19795.209212 2976.704095 7371.097695 9194.978614 -21454.808242 6972.108013 8914.281283 -10528.761068 6305.641318 -6189.768134 22745.955484 6548.109860 8522.502867 5899.126121 7621.179434 6530.402329 7494.240913 7098.966076 5668.632482 6036.087436 5537.291102 7193.728087 5629.528584 -18438.913637 9258.564358 8434.754042 7235.351589 12349.659862 7684.828844 -22431.797423 6214.186262 6443.159528 4584.721801 8782.947098 8380.323263 -20978.901559 -15209.607003 9297.769029 6140.280323 5752.599239 7980.411314 5575.145733 8263.481794 9239.789010 10036.668913 -18744.759985 6529.911627 6428.781923 7373.262236 8043.199602 -16814.473430 7863.071894 10356.770462 13287.584148 -15689.114383 11775.028618 6116.572718 4603.506716 4975.123558 20703.934557 9454.387884 8702.274252 9506.375493 7322.116951 6304.715930 7698.418398 6547.443850 6851.829495 8686.955087 7090.453139 22049.848206 12071.463776 13083.982265 8989.118083 6883.050728 5789.064052 8332.671184 8520.955777 4127.803244 7798.562569 10088.457823 7291.379654 8116.776854 9490.511165 5014.157370 8979.908376 9674.423251 10911.697437 8261.886387 6570.951951 9349.508280 10092.323012 4787.861144 8109.505100 6730.422918 8970.094890 6688.828910 8831.332496 9784.309394 5599.991666 11970.940520 6625.933880 8004.584883 5861.896569 6937.249565 8201.430307 6717.454035 9328.033780 6587.927297 8736.524426 12441.817084 9257.333573 10118.848938 13185.748050 6099.875522 8381.365849 6160.783393 -21247.433936 6865.863302 7000.657846 9338.697808 7385.136605 7011.052880 7706.357442 9743.152191 10498.094668 33620.531463 6804.009292 6928.404961 7927.688941 10072.152156 6640.645563 6765.176366 14115.630855 6068.068121 9814.205304 13440.822287 8584.018736 7631.077070 8465.625712 7573.987608 7846.094653 10765.337486 8708.279232 12444.743627 10408.158830 12273.364477 9394.757756 9041.856677 13425.678065 6760.110088 6033.271136 -10811.666756 27226.596683 7230.265063 9374.000699 4969.195304 5749.835666 5638.060029 6260.350884 13690.225014 12520.770230 12790.768778 8747.924121 6782.272288 11400.138490 6788.538133 14057.100193 9804.133527 12493.008655 5714.227574 13307.978216 9842.608635 446.874640 9936.534028 12722.100970 7731.776294 12591.186342 12003.420737 15037.387754 14936.837075 13045.880765 10269.708917 6035.629131 6344.158263 13007.469917 9841.706210 13285.605366 9066.900123 9534.471969 12749.256732 9578.804240 11522.496798 8063.359123 9427.457993 7601.290257 11578.125296 10774.580989 9368.203433 7543.201859 9291.926539 6441.553828 6206.224959 9464.921037 14565.827589 10545.089597 9729.729132 11492.941943 12584.759262 9909.972686 8925.282532 7674.611129 39297.153289 8091.331769 7905.549402 5764.099981 11119.283382 9309.430005 6320.339094 10482.726662 12097.045573 6718.321230 7485.205766 8310.824785 11184.849969 6491.525653 10312.911422 9099.406320 11243.820766 10605.874434 15576.166579 14148.101692 9352.345277 7467.419036 11482.112412 7143.837441 10632.944881 4742.330617 5868.734296 8232.268221 8929.812853 8272.194610 9319.644983 6961.046889 9219.244184 11381.069700 7288.287588 12318.402229 10592.327265 14359.880117 13571.854752 10104.758848 9006.966436 8319.813131 8224.591036 5762.320297 5852.345659 5139.445876 7208.736506 5612.277339 5532.385812 9509.211719 5163.752001 6013.309136 12080.711146 6894.930682 8986.460341 12576.408912 10592.827988 11345.727059 14104.529223 12551.001099 6447.506873 13790.685559 8804.724364 6961.545795 6865.481681 4730.981383 6918.843996 5025.375623 8273.685197 10631.297661 11696.115195 6528.263480 7774.434380 7293.424567 14504.004745 10372.197761 11355.626458 12698.240095 9720.810832 12535.404490 10137.045291 5789.055442 7699.559195 12274.583664 6412.238720 7449.558458 11140.294093 6265.747813 10904.548177 7612.857488 9479.232788 9928.421832 10148.409095 9601.985409 11451.121763 13919.457940 12928.739533 13996.239263 12217.755631 12558.340963 9933.581822 13372.127487 6584.347062 9366.954335 9847.967830 10256.467028 7853.875852 10714.140600 8379.954213 11223.424720 8160.167266 11383.193806 11353.839950 9590.611223 13014.428774 11899.785296 10336.603843 8731.953652 12255.036406 8672.790316 10079.566031 11616.701522 13003.086984 10933.968165 7074.971606 9840.672686 5405.247082 8931.326570 9197.079765 5999.510128 9760.492733 13106.069412 10826.838168 8841.524193 10837.297978 11825.663525 8925.589554 13511.006549 13395.923358 10850.690225 10254.773159 7556.867842 6371.501468 4785.828261 7614.347325 6355.424626 5219.234283 5415.505889 8490.649697 8898.881570 11325.657609 10503.099533 11161.485588 8781.281261 8195.798978 11356.868541 12656.837812 14221.136553 13119.735066 12434.423977 9494.811253 10371.464268 4182.033910 4314.997538 3011.730585 8250.599524 9300.937008 7847.644868 7797.970756 7910.879313 4673.269759 12069.805526 7128.466337 11180.543755 11979.343030 12264.703590 12041.567225 11710.337389 12141.579970 12488.609659 12144.306936 12031.036007 596.716350 4206.599556 1828.734149 4598.255529 8597.587872 8923.635427 5762.258080 8106.618345 6033.806033 7039.387439 8837.960478 10533.434157 6771.172197 11220.974603 12486.609627 13420.436565 11406.398960 11776.503867 13562.037318 9221.070779 1542.460424 1383.924431 1695.103676 3486.904791 1702.750772 4758.665904 6996.383773 10473.982263 4860.276626 7641.372577 6106.076492 6051.850535 8636.705555 7857.358049 11300.827244 12640.325134 8675.607232 12853.048568 9518.202555 14312.879146 2075.390152 3343.968505 744.423389 208.875382 7357.054508 2516.356964 5932.963822 5218.549938 5286.980233 6548.657721 4740.113524 6783.684580 6393.408893 11290.833285 8244.427792 13334.983757 9606.255989 13038.765434 8716.141078 13756.327833 2231.849899 1884.490735 1880.958242 1743.952941 1723.634233 3743.395716 3662.493560 6120.247156 5003.485693 6009.984260 4039.073659 6723.080647 13013.127407 6682.706034 7971.007097 11023.554457 9657.992526 9010.814037 11930.781506 8984.180278 1459.344450 1002.885732 2042.495046 533.707387 1323.930783 4357.070102 2887.719965 4016.149380 5480.448897 3494.931535 7215.731929 6582.744608 5847.723498 6095.161809 9479.344436 8792.607924 9022.047281 12473.013089 10119.936229 9878.926063 1987.829009 727.777742 1444.081400 548.387408 2754.576493 2674.247529 3693.156529 5616.824215 5715.206632 5844.853485 6982.455935 7919.300317 7204.557258 9858.820400 10352.960339 14077.987285 13637.176132 13623.488055 8899.681042 9175.121377 -1471.198701 3799.214538 1646.180874 1864.750320 1363.268284 1039.776764 1528.986032 3002.812123 2632.053187 3257.057336 8050.489109 6232.920572 8497.166810 6078.736318 7271.014719 10977.542883 14851.313199 12992.935974 11283.988765 10847.597120 2053.366452 2134.367293 546.556435 425.351090 1749.697882 2746.36288