<VTKFile type="PolyData">
<PolyData>
<Piece NumberOfPoints="6715" NumberOfVerts="6715" NumberOfLines="0" NumberOfStrips="0" NumberOfPolys="0">
<PointData>
<DataArray type="Float64" Name="Pressure" format="ascii">
 2364.898465 2179.831783 2253.636014 2501.671430 2857.361862 3252.025303 3813.037721 4710.177514 5640.376281 6807.366313 8220.676982 9454.629784 7711.288473 1677.069539 -1744.973801 2199.501392 10431.090524 6655.603944 -6072.736061 -5633.803366 -1058.222361 3454.095693 8447.769751 8865.992371 8338.646981 8963.142159 10011.753348 11498.117532 12531.259825 11624.576317 10002.423486 9385.572673 9090.155797 8692.663783 8788.970123 8829.370589 8846.793146 8945.314333 9128.933739 9373.471706 9927.872007 10570.265175 10855.007039 10610.368292 10264.340901 10596.100991 11389.310445 12014.502720 11931.765185 11552.504191 11759.267732 12349.048715 12886.394882 13083.205559 13269.099656 13599.147983 13592.375509 13304.382445 12974.149194 13107.768245 13674.304704 14226.483007 14433.279729 14620.777650 15055.640735 15894.724136 16539.518906 16700.836012 16547.007707 16451.224713 16676.450914 16972.479000 17093.454895 17337.922789 17716.793415 17720.517914 17344.124973 16836.942374 16861.857765 17359.334899 17904.795189 18338.982642 18415.018787 18167.780706 17479.906987 16854.272880 17047.217941 17843.280764 18653.548839 18658.197182 18243.018744 17953.113199 18265.231104 18772.595736 19248.685453 19571.521406 19476.430765 18983.442518 18629.009403 18867.976828 19533.834198 20024.024745 19727.004962 18752.321656 18024.095235 17708.187172 17587.866961 17498.276804 17609.367275 17957.762327 18329.312609 18547.278288 18883.832735 19366.427847 19708.891306 19418.453720 18664.008161 17941.683032 17610.795509 17691.629800 17935.912436 17960.343078 17757.140978 17623.974424 17649.179606 17821.397388 18227.244446 18341.637187 18101.740460 17742.253865 17574.626957 17879.156312 18479.240137 19138.547286 19269.764754 18788.778061 18226.870206 18008.193205 18209.521186 18570.109706 18899.463485 18871.953138 18633.220623 18366.057817 18529.338516 18565.299372 18254.882442 17917.193278 17767.327594 17746.012045 17808.351076 17900.034895 18005.037342 18011.189072 17888.372352 17672.813033 17341.372884 17106.692474 17151.142775 17226.675177 17094.242863 16878.606427 16848.816568 16903.512315 16793.875916 16463.932143 16197.843468 16139.987449 16294.228798 16701.029827 16900.183167 16763.455258 16508.977280 16148.554683 16171.929246 16444.702990 16511.808302 16430.874986 16337.773415 16241.272972 16118.118874 15936.894088 15609.977860 15310.709758 15174.721237 15176.488030 15152.313086 15043.084863 14928.020326 14893.210400 14955.609044 14992.192784 14974.921296 14971.888260 15030.249179 14949.747498 14569.365366 13976.535445 13276.884443 12322.329648 11517.563425 3429.200344 3043.534135 2767.753995 2728.502872 2824.484588 2928.731673 3063.260706 3326.964410 3778.150221 4409.145311 5263.203458 6229.150044 6988.308378 6475.754123 4213.225888 909.463990 -2224.161696 -6449.264254 -12467.269434 -15498.546812 -12068.355120 -5867.950601 -1136.293325 2634.693604 4760.241724 6260.199814 7512.958508 8574.069943 9558.119969 10058.416183 9711.681150 9034.832302 8633.613568 8452.287648 8349.976203 8408.891161 8509.085433 8677.958516 8912.238029 9171.039130 9435.752141 9757.655400 10095.302981 10309.979624 10244.436093 10142.789063 10440.612095 11038.842383 11589.574200 11771.121813 11679.808981 11841.216008 12369.501594 12929.933455 13184.477445 13278.339104 13373.555380 13349.587024 13291.121949 13252.559975 13319.679925 13656.092951 14078.258323 14294.835247 14464.675245 14862.078288 15506.827892 16021.413631 16233.763322 16359.156374 16538.619911 16751.872766 16855.522173 16841.741978 16930.321413 17167.573013 17232.523217 16996.576853 16713.159948 16753.076408 17120.076246 17565.181571 17883.017587 17987.502655 17858.503214 17452.709829 17075.585730 17266.550666 17953.026709 18522.690069 18567.212510 18342.316171 18180.925391 18308.373302 18611.200117 18917.645884 19158.894997 19163.819742 18892.154838 18693.174355 18880.034010 19312.493238 19538.225299 19232.546715 18517.291919 17829.177174 17338.981811 17099.143697 17030.830032 17077.868165 17284.605168 17690.655915 18074.016523 18375.982411 18711.665350 18990.380345 18918.362155 18408.552643 17781.495739 17398.401888 17373.016123 17518.592389 17558.603619 17462.128571 17392.931005 17470.669787 17679.530157 17941.724756 18078.184226 18075.779377 17939.547221 17771.568288 17895.250542 18330.081857 18800.845576 18943.640815 18714.024115 18346.354993 18109.858364 18154.302976 18412.959947 18787.855555 18973.849753 18831.243580 18584.301588 18479.165760 18355.232101 18110.681241 17859.530251 17726.674781 17696.714318 17709.916110 17735.983399 17734.557860 17686.235924 17590.929466 17422.297253 17207.918414 17072.434106 17085.332030 17103.028965 16975.569517 16755.147285 16578.690053 16475.000290 16368.818893 16181.225628 16022.596393 16027.642855 16154.027968 16314.332327 16460.905854 16401.638904 16124.349238 15895.136974 15944.485894 16140.712830 16204.250615 16101.711454 15983.186741 15888.954583 15766.670508 15574.781345 15269.330617 14951.158074 14757.198963 14671.068541 14573.049508 14423.285159 14304.017437 14277.657640 14355.781550 14424.730104 14422.342132 14387.563330 14362.069553 14203.907293 13800.087418 13189.007790 12482.852836 11723.187627 11099.268103 10721.171896 3931.380369 3744.660123 3409.376595 3141.370485 3044.280038 3037.173829 3029.681525 3067.120964 3230.078090 3506.927974 3851.587330 4328.650427 4978.844934 5534.226543 5658.844035 5391.183996 4048.269758 260.654764 -5979.332368 -11847.016153 -13365.272246 -10819.628558 -7020.604469 -3452.576096 -260.219824 2607.829937 4964.160026 6659.300585 7846.603115 8637.926388 8888.274203 8645.877231 8261.230545 8000.790571 7937.205084 8015.867287 8148.635050 8317.751950 8531.832948 8773.750528 9036.254893 9303.609000 9548.741366 9764.226927 9926.120572 9973.044696 10013.629730 10247.492591 10688.324248 11181.020679 11499.472389 11644.481034 11887.867624 12349.833797 12810.187105 13035.575253 13107.955536 13143.903715 13153.663143 13218.751616 13379.808945 13591.092258 13861.455810 14124.992042 14289.529893 14472.998901 14840.755723 15363.030841 15796.563528 16055.235998 16285.570468 16546.451288 16714.857070 16719.311067 16668.029215 16720.232812 16889.166409 16977.251478 16870.648309 16729.502742 16780.425398 17047.140834 17365.863725 17589.953157 17678.757293 17595.289341 17367.934112 17206.680258 17389.038946 17853.694174 18234.914123 18345.941623 18286.180417 18222.998614 18283.665148 18468.431246 18675.098384 18836.539302 18863.701677 18748.073056 18662.848526 18771.604516 18990.517634 19047.619870 18764.709732 18230.249911 17660.429763 17214.674851 16974.623249 16912.322024 16958.817858 17149.892372 17471.069200 17801.074523 18081.879246 18340.143747 18530.553056 18506.995325 18190.363570 17703.535370 17329.461564 17235.092310 17299.127560 17327.197634 17310.277405 17323.102014 17423.907436 17602.027033 17793.393639 17902.758211 17964.422185 17920.426315 17843.477993 17919.884313 18221.148105 18576.278362 18744.237550 18663.950871 18459.978315 18297.200064 18272.620714 18417.144826 18694.757053 18872.400135 18764.242970 18499.555084 18296.623061 18141.597576 17961.601315 17792.929960 17691.370395 17654.666833 17636.603707 17609.973485 17574.635871 17519.969856 17429.437771 17301.313604 17154.827868 17045.403332 17001.552764 16954.080442 16817.926072 16612.780233 16427.539264 16300.784458 16194.715930 16080.838106 16005.848312 16016.000013 16098.378746 16164.570083 16171.482472 16076.161365 15904.782398 15774.558601 15778.969507 15888.059673 15932.967910 15858.292623 15753.023583 15648.894028 15513.921104 15310.322826 15024.385508 14738.041177 14550.617121 14447.447530 14328.626385 14173.425972 14043.275181 13994.808880 14025.027293 14062.339620 14043.176944 13995.801504 13934.340273 13744.781294 13337.354073 12757.632083 12105.310481 11471.867485 10932.061378 10588.216621 10455.114377 11517.563425 12196.690165 12874.852042 13015.811645 12639.590581 11960.536376 11321.073223 10768.915169 10261.130377 9745.830407 9065.814589 8144.222223 7282.661086 6626.187291 6048.374383 5425.864355 4763.394032 4068.620253 3458.408799 2858.613023 2558.471173 2309.164321 2122.339211 2002.085678 1914.582098 1848.698446 1795.562345 1747.354783 1698.696089 1646.209804 1588.137677 1523.956133 1454.025351 1379.284373 1301.002306 1220.584539 1139.428646 1058.823798 979.887476 903.533001 830.461096 761.168828 695.969943 635.021559 578.353275 525.895873 477.507696 432.997623 392.144137 354.710459 320.455989 289.144500 260.549599 234.458000 210.671132 189.005525 169.292395 151.376710 135.115999 120.379088 107.044849 95.001083 84.143527 74.375035 65.604907 57.748356 50.726090 44.463981 38.892812 33.948061 29.569721 25.702136 22.293836 19.297383 16.669198 14.369392 12.361579 10.612691 9.092777 7.774804 6.634461 5.649953 4.801803 4.072666 3.447138 2.911580 2.453948 2.063640 1.731338 1.448879 1.209123 1.005835 0.833582 0.687626 0.563839 0.458599 0.368672 0.290977 0.221705 0.157559 0.125016 10721.171896 11031.637961 11481.613549 11857.126994 11920.067702 11636.209029 11147.547551 10616.464686 10094.396440 9573.048860 9020.118809 8364.833442 7609.997392 6878.465991 6252.743169 5685.669045 5099.984050 4484.722631 3881.388264 3326.432478 2857.920725 2530.991455 2291.584910 2121.122439 2001.185996 1913.439026 1848.108931 1795.351478 1747.394459 1698.888144 1646.479392 1588.428379 1524.228129 1454.252739 1379.452514 1301.105299 1220.622973 1139.407643 1058.751323 979.772942 903.386182 830.291337 760.984529 695.778278 634.828362 578.163068 525.711969 477.332358 432.832242 391.989415 354.566575 320.322750 289.021465 260.436178 234.353532 210.574936 188.916944 169.210810 151.301557 135.046775 120.315340 106.986180 94.947137 84.093985 74.329608 65.563331 57.710383 50.691487 44.432527 38.864294 33.922274 29.546469 25.681228 22.275089 19.280620 16.654252 14.356103 12.349797 10.602273 9.083590 7.766724 6.627374 5.643752 4.796392 4.067956 3.443048 2.908038 2.450889 2.061004 1.729073 1.446939 1.207466 1.004427 0.832390 0.686628 0.563022 0.457989 0.368402 0.291547 0.225250 0.168747 0.132315 0.117272 10455.114377 10557.726340 10794.413093 11099.582140 11321.098889 11332.370253 11101.181325 10703.227545 10233.381539 9736.305519 9207.570396 8634.573556 8007.674175 7333.657893 6662.533695 6044.854578 5468.536376 4897.169706 4321.035645 3769.722898 3270.228552 2850.113568 2528.691705 2294.115162 2125.677958 2003.018515 1914.311106 1848.613720 1795.537613 1747.348385 1698.694220 1646.209260 1588.137437 1523.956037 1454.025325 1379.284369 1301.002306 1220.584539 1139.428647 1058.823798 979.887476 903.533001 830.461096 761.168828 695.969943 635.021559 578.353275 525.895873 477.507696 432.997623 392.144137 354.710459 320.455989 289.144500 260.549599 234.458000 210.671132 189.005525 169.292395 151.376710 135.115999 120.379088 107.044849 95.001083 84.143527 74.375035 65.604907 57.748356 50.726090 44.463981 38.892812 33.948061 29.569721 25.702136 22.293836 19.297383 16.669198 14.369392 12.361579 10.612691 9.092777 7.774804 6.634461 5.649953 4.801803 4.072666 3.447138 2.911580 2.453948 2.063640 1.731338 1.448879 1.209123 1.005837 0.833587 0.687643 0.563894 0.458781 0.369274 0.292956 0.228401 0.176097 0.138086 0.118753 0.113079 0.125016 0.108813 0.084754 0.067452 0.054236 0.043695 0.035177 0.028272 0.022674 0.018144 0.014485 0.011537 0.009167 0.007266 0.005745 0.004532 0.003566 0.002799 0.002191 0.001711 0.001333 0.001036 0.000802 0.000620 0.000478 0.000368 0.000282 0.000215 0.000164 0.000125 0.000095 0.000072 0.000054 0.000041 0.000030 0.000023 0.000017 0.000013 0.000009 0.000007 0.000005 0.000004 0.000003 0.000002 0.000001 0.000001 0.000001 0.000001 0.000000 0.000000 0.000000 0.000000 0.000000 0.000000 0.000000 0.000000 0.000000 0.000000 0.000000 0.000000 0.000000 0.000000 0.000000 0.000000 0.000000 0.000000 0.000000 0.000000 0.000000 0.000000 0.000000 0.000000 0.000000 0.000000 0.000000 0.000000 0.000000 0.000000 0.000000 0.000000 0.000000 0.000000 -0.000000 0.000000 0.000000 0.000000 0.000000 0.000000 0.000000 0.000000 0.000000 0.000000 -0.000000 -0.000000 -0.000000 -0.000000 -0.000000 -0.000000 -0.000000 -0.000000 -0.000000 -0.000000 -0.000000 -0.000000 -0.000000 -0.000000 -0.000000 -0.000000 -0.000000 -0.000000 -0.000000 -0.000000 -0.000000 -0.000000 -0.000000 -0.000001 -0.000001 -0.000001 -0.000001 -0.000002 -0.000002 -0.000003 -0.000004 -0.000006 -0.000008 -0.000010 -0.000013 -0.000018 -0.000023 -0.000031 -0.000040 -0.000053 -0.000069 -0.000090 -0.000117 -0.000152 -0.000196 -0.000254 -0.000327 -0.000420 -0.000539 -0.000690 -0.000880 -0.001122 -0.001426 -0.001809 -0.002289 -0.002890 -0.003642 -0.004578 -0.005742 -0.007187 -0.008974 -0.011181 -0.013900 -0.017241 -0.021338 -0.026349 -0.032463 -0.039907 -0.048949 -0.059904 -0.073147 -0.089118 -0.108332 -0.131394 -0.159007 -0.191991 -0.231296 -0.278022 -0.333437 -0.398996 -0.476372 -0.567473 -0.674473 -0.799841 -0.946375 -1.117229 -1.315953 -1.546525 -1.813392 -2.121507 -2.476364 -2.884043 -3.351240 -3.885312 -4.494302 -5.186978 -5.972857 -6.862228 -7.866174 -8.996592 -10.266227 -11.688777 -13.279249 -15.055148 -17.040496 -19.279086 -21.891926 -25.093079 -27.079144 0.117272 0.112715 0.099538 0.081913 0.066586 0.053912 0.043542 0.035086 0.028207 0.022624 0.018104 0.014453 0.011510 0.009145 0.007249 0.005731 0.004521 0.003557 0.002792 0.002185 0.001707 0.001329 0.001033 0.000800 0.000618 0.000477 0.000366 0.000281 0.000215 0.000164 0.000125 0.000094 0.000071 0.000054 0.000040 0.000030 0.000023 0.000017 0.000013 0.000009 0.000007 0.000005 0.000004 0.000003 0.000002 0.000001 0.000001 0.000001 0.000001 0.000000 0.000000 0.000000 0.000000 0.000000 0.000000 0.000000 0.000000 0.000000 0.000000 0.000000 0.000000 0.000000 0.000000 0.000000 0.000000 0.000000 0.000000 0.000000 0.000000 0.000000 -0.000000 0.000000 0.000000 0.000000 0.000000 -0.000000 0.000000 0.000000 0.000000 -0.000000 -0.000000 0.000000 0.000000 -0.000000 -0.000000 0.000000 0.000000 0.000000 -0.000000 0.000000 0.000000 0.000000 0.000000 -0.000000 -0.000000 -0.000000 -0.000000 -0.000000 -0.000000 -0.000000 -0.000000 -0.000000 -0.000000 -0.000000 -0.000000 -0.000000 -0.000000 -0.000000 -0.000000 -0.000000 -0.000000 -0.000000 -0.000000 -0.000000 -0.000000 -0.000000 -0.000001 -0.000001 -0.000001 -0.000001 -0.000002 -0.000002 -0.000003 -0.000004 -0.000006 -0.000008 -0.000010 -0.000013 -0.000018 -0.000023 -0.000031 -0.000040 -0.000053 -0.000069 -0.000090 -0.000117 -0.000151 -0.000196 -0.000253 -0.000326 -0.000419 -0.000537 -0.000688 -0.000878 -0.001119 -0.001422 -0.001804 -0.002284 -0.002884 -0.003633 -0.004568 -0.005730 -0.007171 -0.008955 -0.011158 -0.013872 -0.017207 -0.021296 -0.026298 -0.032403 -0.039835 -0.048862 -0.059800 -0.073024 -0.088971 -0.108158 -0.131187 -0.158763 -0.191704 -0.230959 -0.277628 -0.332976 -0.398459 -0.475748 -0.566750 -0.673637 -0.798879 -0.945269 -1.115962 -1.314504 -1.544874 -1.811515 -2.119379 -2.473960 -2.881333 -3.348195 -3.881900 -4.490490 -5.182731 -5.968139 -6.857000 -7.860391 -8.990184 -10.259053 -11.680461 -13.268641 -15.038546 -17.005653 -19.184727 -21.577063 -24.097500 -25.915929 -26.604895 0.113079 0.112017 0.106370 0.094396 0.080029 0.066038 0.053807 0.043565 0.035138 0.028260 0.022670 0.018143 0.014485 0.011537 0.009167 0.007266 0.005745 0.004532 0.003566 0.002799 0.002191 0.001711 0.001333 0.001036 0.000802 0.000620 0.000478 0.000368 0.000282 0.000215 0.000164 0.000125 0.000095 0.000072 0.000054 0.000041 0.000030 0.000023 0.000017 0.000013 0.000009 0.000007 0.000005 0.000004 0.000003 0.000002 0.000001 0.000001 0.000001 0.000001 0.000000 0.000000 0.000000 0.000000 0.000000 0.000000 0.000000 0.000000 0.000000 0.000000 0.000000 0.000000 0.000000 0.000000 0.000000 0.000000 0.000000 0.000000 0.000000 0.000000 0.000000 0.000000 0.000000 0.000000 0.000000 0.000000 0.000000 0.000000 0.000000 0.000000 0.000000 -0.000000 0.000000 0.000000 -0.000000 0.000000 0.000000 0.000000 0.000000 0.000000 0.000000 0.000000 0.000000 0.000000 -0.000000 -0.000000 -0.000000 -0.000000 -0.000000 -0.000000 -0.000000 -0.000000 -0.000000 -0.000000 -0.000000 -0.000000 -0.000000 -0.000000 -0.000000 -0.000000 -0.000000 -0.000000 -0.000000 -0.000000 -0.000000 -0.000000 -0.000000 -0.000001 -0.000001 -0.000001 -0.000001 -0.000002 -0.000002 -0.000003 -0.000004 -0.000006 -0.000008 -0.000010 -0.000013 -0.000018 -0.000023 -0.000031 -0.000040 -0.000053 -0.000069 -0.000090 -0.000117 -0.000152 -0.000196 -0.000254 -0.000327 -0.000420 -0.000539 -0.000690 -0.000880 -0.001122 -0.001426 -0.001809 -0.002289 -0.002890 -0.003642 -0.004578 -0.005742 -0.007187 -0.008974 -0.011181 -0.013900 -0.017241 -0.021338 -0.026349 -0.032463 -0.039907 -0.048949 -0.059904 -0.073147 -0.089118 -0.108332 -0.131394 -0.159007 -0.191991 -0.231296 -0.278022 -0.333437 -0.398996 -0.476372 -0.567473 -0.674473 -0.799841 -0.946375 -1.117229 -1.315953 -1.546525 -1.813392 -2.121507 -2.476364 -2.884043 -3.351240 -3.885312 -4.494302 -5.186977 -5.972853 -6.862215 -7.866134 -8.996459 -10.265793 -11.687361 -13.274627 -15.040061 -16.991232 -19.118618 -21.360589 -23.522484 -25.269590 -26.136782 -26.344031 -27.079144 -30.033886 -35.554689 -41.070561 -46.741986 -52.717788 -59.047487 -65.756367 -72.861048 -80.374101 -88.305193 -96.661227 -105.446174 -114.660825 -124.302535 -134.364984 -144.837972 -155.707247 -166.954378 -178.556673 -190.487144 -202.714519 -215.203285 -227.913766 -240.802210 -253.820887 -266.918175 -280.038657 -293.123251 -306.109425 -318.931612 -331.521920 -343.811275 -355.731062 -367.215194 -378.202343 -388.637727 -398.473553 -407.666930 -416.173931 -423.938509 -430.875242 -436.846891 -441.643852 -444.984175 -446.574766 -446.256618 -444.194153 -441.974773 -445.935517 -441.164613 -463.165831 -456.592588 -348.817471 -245.951995 -248.587358 -396.360001 -714.472044 -826.039846 -769.684765 -827.842372 -1070.505028 -1108.458977 -931.579209 -930.095987 -1437.761453 -2119.847435 -2318.092153 -1835.996718 -1146.680799 -388.423169 -122.684557 -112.308650 -50.479435 -45.997972 -171.820406 -302.455484 -432.112468 -571.763512 -639.932572 -503.909563 -172.188398 -1389.123795 -3715.398198 -4417.825510 -3405.069247 -2129.636638 -1211.450433 -948.169245 -1052.839199 -994.838638 -1075.107495 -1294.249843 -1434.113259 -1089.582229 -536.314698 -75.042276 130.859919 567.458026 1486.602904 2364.898465 -26.604895 -27.934802 -31.139423 -35.914806 -41.156603 -46.756230 -52.710102 -59.032726 -65.739035 -72.842584 -80.355018 -88.285733 -96.641561 -105.426458 -114.641218 -124.283206 -134.346111 -144.819740 -155.689848 -166.938006 -178.541526 -190.473418 -202.702408 -215.192981 -227.905454 -240.796074 -253.817104 -266.916921 -280.040102 -293.127555 -306.116731 -318.942032 -331.535515 -343.828030 -355.750866 -367.237827 -378.227494 -388.665053 -398.502793 -407.698080 -416.207490 -423.975778 -430.918631 -436.899953 -441.710562 -445.066584 -446.665595 -446.344679 -444.286545 -441.516424 -442.800082 -447.044961 -447.890889 -451.967425 -430.748032 -389.989551 -427.184129 -578.116021 -731.391206 -736.848228 -687.203131 -758.850004 -954.045965 -1075.141037 -1039.393832 -1046.204340 -1302.642039 -1731.966923 -1871.696913 -1388.151610 -702.790168 -373.315501 -351.258322 -250.940283 -106.563585 -107.973038 -213.099367 -279.128480 -321.098493 -407.333191 -514.569396 -659.414403 -1023.183546 -2088.379975 -3444.317065 -3847.300526 -3122.610945 -2104.341521 -1257.936601 -958.682921 -877.901539 -837.666777 -911.265760 -1072.600444 -1167.441067 -954.205029 -555.649033 -146.193033 230.062367 780.069408 1742.678923 2759.023487 3429.200344 -26.344031 -26.837580 -28.539760 -31.839614 -36.199943 -41.264043 -46.801463 -52.736003 -59.053069 -65.758077 -72.861572 -80.374262 -88.305242 -96.661242 -105.446179 -114.660827 -124.302535 -134.364984 -144.837972 -155.707247 -166.954378 -178.556673 -190.487144 -202.714519 -215.203285 -227.913766 -240.802210 -253.820887 -266.918175 -280.038657 -293.123251 -306.109425 -318.931612 -331.521920 -343.811275 -355.731062 -367.215194 -378.202343 -388.637728 -398.473556 -407.666939 -416.173965 -423.938622 -430.875543 -436.847547 -441.645223 -444.986703 -446.575095 -446.265745 -444.289813 -441.416089 -440.469700 -445.515798 -452.549910 -455.352384 -449.339539 -448.291155 -500.115938 -610.209617 -692.669385 -686.216374 -678.533178 -772.654599 -931.359445 -1039.363050 -1062.932422 -1111.997269 -1285.161708 -1507.562458 -1512.841549 -1119.798142 -634.849512 -450.617319 -453.494022 -344.254782 -206.488973 -191.221580 -242.514218 -255.940100 -238.574004 -262.484954 -358.697026 -588.113618 -1076.441178 -1911.850398 -2780.825848 -3083.303754 -2681.206185 -1918.333049 -1181.468927 -770.676892 -605.195369 -583.473178 -643.386975 -744.839797 -792.756086 -675.828696 -394.234826 -15.102203 457.491498 1109.521206 2021.381378 2979.309822 3651.978577 3931.380369 5104.352728 -769.931139 3486.913492 569.261525 -717.564582 -2686.273741 544.760497 -157.471231 619.122478 -1004.883431 -997.488072 139.087620 1854.978174 -1097.367807 -111.515241 900.956106 -841.270446 418.032429 1438.140850 1641.621146 646.400697 -4037.534109 -290.821779 3507.253312 630.645082 2964.026887 -3.526976 1937.205426 755.579150 830.678702 1517.981891 266.559441 947.699791 627.374832 1206.367554 596.299117 645.474225 396.441725 2111.106641 2575.466126 4092.270903 -590.166733 401.828534 545.204276 1844.888333 1333.578526 730.604043 1134.186936 1387.842187 1224.541296 1153.838786 692.658878 2629.061927 -510.853127 1172.343966 2112.780403 1617.308288 985.499094 1885.481310 758.363639 2771.102120 3644.829034 3703.150795 1161.821353 1964.420353 2350.234449 1263.533129 423.660507 798.155927 1098.339764 966.195138 954.810647 1141.075288 739.302700 1712.133576 1735.581803 5634.025461 1230.082048 2796.514454 2928.798007 5541.789529 9829.796553 8846.215467 5780.572203 3978.982784 7388.614441 36872.878323 33755.428814 2837.041770 -358.852168 3056.201210 5107.298380 8531.718935 -287.926151 2613.698823 1714.125852 944.652326 2236.639224 3350.824655 3965.441262 7696.379100 4094.144082 1380.978786 1380.404835 -770.193376 5930.479303 5716.789703 8475.865117 750.456328 5843.577909 -2172.550278 9070.797560 100.735216 7952.553609 6011.654008 3664.426929 752.075817 1583.772894 6103.423066 -616.873985 6088.769923 1222.788693 4193.632479 4526.983838 5157.569160 32750.079130 7780.423889 2660.605901 30202.155439 20637.234327 9930.329563 4352.139984 2446.563186 5355.256500 -1970.202390 45211.744290 7725.848546 2913.123466 2653.357948 4748.300292 30717.823425 8007.907680 36957.033090 3318.345189 1730.828330 17654.207190 45864.636741 9771.384967 13742.385100 -1844.029651 1396.182458 7308.635473 2584.552182 9407.289255 7609.535837 3541.813957 -923.709835 1549.260405 4179.515290 2706.521218 4764.780711 5499.224944 6534.768085 5793.645694 37859.597654 1244.936722 7303.786089 8866.360634 3549.351388 2623.272060 -2630.157913 991.237755 10022.066681 5804.634791 8170.849683 -2703.747252 9531.624150 3389.731530 3897.844462 3745.162628 2005.494057 6228.259083 2890.917630 7928.267122 1677.327381 34671.186922 20856.792147 -3120.663358 6214.792147 8237.468400 34991.464122 26750.404251 9669.371367 46675.247259 2030.319088 7473.455970 25986.910528 7393.436076 5499.583021 9660.713090 7926.017248 5022.089885 -3368.051136 3104.773550 2991.206147 1922.409104 14728.855412 3626.709709 21032.624198 -5625.944488 5516.559393 6673.673302 3517.658889 6207.378749 3486.995095 13790.962289 4382.737939 12117.015873 12343.735517 10923.730722 4538.461007 36120.767859 38206.335217 5655.646069 5780.347564 1846.276467 6002.319208 3229.751181 4124.946804 6195.823937 8304.831464 40268.704211 2714.741210 2314.969372 4635.967429 8981.773584 -1025.510797 11688.159684 10318.368909 1667.764617 38520.782257 6735.360289 2235.086026 3650.721176 21250.097889 23628.298186 7561.807328 4202.425941 8080.994884 3155.717656 1283.428256 3650.730922 3604.691141 3508.899782 7842.737433 5995.671645 28532.809073 7787.817430 9215.884813 8765.040462 6129.662678 6505.254883 4500.857598 7451.457151 9295.609498 5698.812571 7728.403124 4520.487672 7229.888597 6878.914298 7060.783960 7043.916946 7002.493565 7449.035681 7761.575777 8681.109696 7330.602319 8410.377264 29359.215625 10174.823736 2783.155112 5793.887877 4768.457713 6397.772943 6757.883578 1172.791275 6209.155041 3927.113171 8252.160832 1112.892526 4403.955650 5777.886519 3284.982765 5273.086585 2279.145300 6842.047894 8538.295938 6827.775607 6089.839327 8921.293780 1114.143443 5208.549080 8217.929236 32370.348789 6123.300919 4910.221092 4134.660918 3053.449293 4177.227984 5743.532132 5941.760347 7269.956918 49002.300399 3761.373273 5240.967821 5562.119217 8001.585470 6332.177265 4618.140866 9514.736748 3255.891019 6534.975606 9655.322550 5655.434014 2821.405894 16005.661659 4979.653165 3671.409029 5666.428371 4563.125440 10322.178320 6286.316057 8619.739965 6994.367445 4622.973251 9625.908247 11590.693141 1682.548861 23831.787798 16463.924831 7821.813037 6176.230598 3417.399746 3558.778728 3056.135602 2924.727935 8838.971122 8209.979386 8116.986301 5823.085736 4580.198194 9331.464936 5293.211571 9319.366704 8259.105872 9582.776730 9771.870174 9056.187245 7015.411968 10624.394067 10128.829566 8932.221076 5878.875266 8799.889538 9743.066857 10655.036357 8381.602267 12053.710186 7626.158718 6835.311966 7500.983355 11308.184469 8115.855177 10144.192724 8668.545563 9036.508258 8548.784193 8292.884896 7120.511048 5530.796866 8759.323487 5802.486166 6564.023798 8987.458840 7870.296441 6777.781929 8854.107019 6412.733383 4897.322747 9409.724582 12611.016929 11194.012025 9494.744207 7352.670003 10222.499417 10024.567312 9861.772304 5427.355737 43364.656118 11215.701174 6765.932856 6799.015486 8394.663929 7823.632967 6245.421235 7820.997347 11266.850044 8199.075379 6595.047479 7237.001049 12080.280148 7385.890003 10448.733264 6551.005460 11011.546835 9111.692826 9894.139344 10846.833779 10582.848197 5143.365480 10294.110499 7202.392236 9315.392201 5348.437588 5903.198182 6771.717023 8550.968275 7570.125315 9534.609459 7148.748188 9647.183037 10306.106785 7383.649122 11804.872422 9604.050328 10225.533746 10757.323730 8524.568373 7519.822905 11073.188385 9681.003736 5965.962661 5510.953242 5866.113446 6483.017443 6224.113092 5747.202852 9097.185278 5358.070284 6469.138013 11167.746970 7948.724204 9391.428262 12069.005958 11504.591088 11266.973876 10894.010902 10383.259956 8958.195470 10049.990851 9923.712501 6832.315625 7343.411220 5331.966780 6841.246604 4593.635676 8476.969713 10373.648789 10554.708423 6996.462220 7978.987432 7872.061668 13130.500667 9253.062519 11078.422231 11296.838397 13446.151198 13003.148412 7432.280857 9954.291747 7273.092740 11516.148206 6842.020960 7231.237396 10195.188938 6753.794048 11481.348655 7298.856210 9137.709617 9839.488303 10171.700945 9007.082898 12512.835088 11859.398825 12691.453269 11710.299007 10389.018179 10911.876972 12797.036116 7520.773430 6521.782085 11932.852673 11015.372795 9433.163666 10694.151109 9972.246068 8123.049074 11463.036541 7619.248396 11717.643335 12252.555163 11820.580362 13597.612964 11782.620054 10266.273085 9082.476330 12900.790276 8029.173015 9220.837970 8076.755081 14267.782294 12003.837159 6224.454048 8305.945643 5671.256544 11126.125161 9482.893322 9245.575185 12486.345882 13932.965094 12793.472083 12001.128692 10704.270239 12693.390793 8699.188289 8905.591453 15984.113800 9938.119693 10497.387714 12799.173995 7370.668929 5471.487465 8816.157853 6555.482063 5952.723371 5685.140754 9909.461712 11639.732362 12400.300277 13221.525961 11282.634464 10277.771739 9967.178579 13075.576135 13572.514855 11560.957448 10141.220870 11832.616669 8634.634285 9959.090746 5010.557215 6405.939425 4085.428366 9607.223995 10366.130389 10472.523059 8211.533052 8712.716670 7336.515134 14897.390384 9597.273422 10595.811201 14112.353130 13789.972701 12490.691945 13346.507502 14018.491680 13867.269332 14518.813284 10381.826293 791.047888 6044.765082 3292.743078 6187.137455 7692.526246 9243.081655 6582.158286 8563.617296 8027.188189 10639.239124 9116.585509 12476.009800 8559.060167 11144.627067 12266.422011 14189.217025 11769.792184 11539.753358 11048.104567 8642.364105 1080.182549 1743.785510 1954.250777 4948.286977 2487.274567 7267.902761 8055.028368 8802.861221 8200.943451 9818.161003 8970.367532 7988.664478 11639.431859 11051.018271 13236.121379 14120.238482 10831.077401 11680.711765 9138.688796 11360.007938 1511.928716 2810.696723 1137.981539 1192.218738 7323.796728 4118.191680 8487.199218 5746.290917 7882.506088 7488.454891 7269.767364 7189.232487 9201.706347 14662.678495 11470.255322 12805.044185 11112.461874 12707.662067 8087.003717 11489.188219 1185.846435 1076.885070 1918.217066 1350.213787 2679.737812 6442.203290 5087.866948 6273.148553 7682.554786 8878.847321 7275.900208 9603.669179 15838.276922 10099.370741 11429.797368 14455.057043 13315.120565 10248.636370 8328.622042 9905.643010 1371.768596 1403.757757 2564.332826 1038.246368 3197.296226 6491.141813 4458.940242 7251.652099 8107.139819 6156.579923 8393.518020 9326.577464 7064.206638 8761.894985 12167.739309 11989.344020 11316.521703 12494.014355 8762.761910 8843.698124 1040.181020 821.141280 2140.242021 1351.533750 3557.822488 4423.996355 5272.536901 5840.335582 9153.044714 8469.135977 10202.624146 11072.515050 8036.327887 14094.056849 15008.517081 14544.550844 12521.472512 13670.251037 12166.216351 10900.067913 3319.897756 -1568.919705 1886.984800 2589.188861 4056.359387 2549.036639 3216.287521 4092.098084 4748.445742 5445.831320 9008.394090 9742.723048 11773.169586 9488.509137 10259.960422 14197.899373 12878.313737 14308.894530 11373.617688 8602.536347 2197.033489 1781.994475 967.564557 721.882690 3208.731041 3962.703981 3647.601917 4957.309505 8683.519358 5567.101291 8894.398785 9154.274618 9885.544879 11348.029897 10548.081403 14568.441563 14767.495918 14098.317234 8777.410826 11709.275389 924.191794 1353.32