<VTKFile type="PolyData">
<PolyData>
<Piece NumberOfPoints="6715" NumberOfVerts="6715" NumberOfLines="0" NumberOfStrips="0" NumberOfPolys="0">
<PointData>
<DataArray type="Float64" Name="Pressure" format="ascii">
 2356.731990 4634.867691 7874.707291 9871.991321 10071.518815 8352.700060 6514.237698 5154.805821 3670.875430 2586.899817 2396.258455 2388.540011 2441.778924 751.250297 -145.537508 5511.535514 12438.047005 6591.977267 915.046224 2144.020079 3256.231735 -762.232046 -3619.316375 -1048.789700 4360.672787 7802.915292 9015.496305 8927.269531 8449.749732 8010.308136 8053.188619 8510.836884 8809.800650 9018.994667 9145.530770 9307.145804 9728.729742 10042.075502 10291.196725 10364.658372 10361.393147 10712.275388 11554.865893 12645.272631 13328.905518 13789.569677 13892.903344 13557.440169 13546.984365 14093.535055 14647.427978 14814.435886 14579.656763 14610.035886 15195.904916 15690.524016 16115.655805 16034.106083 15810.092987 15819.296567 16193.363580 16456.240535 16521.899374 16753.704288 17064.644655 17087.536808 16720.548463 16061.911927 15423.461128 15221.560916 15697.524644 16448.984938 16675.227384 16347.586750 16386.618343 16754.944933 16911.786556 16666.627247 16306.842002 16036.654706 15892.383952 15808.109241 15897.718122 16030.867508 16017.507035 15829.487192 15595.211318 15280.041905 15190.080395 15642.914885 15905.054731 15712.403439 15647.504581 15757.240576 15764.389790 15435.319997 14880.087758 14723.499840 15197.318197 15810.736561 16078.377177 15750.740120 15319.369417 15295.568674 15829.331247 16418.546819 16483.165591 16092.977925 15793.809342 16151.474289 16629.921875 16895.966594 17325.935077 17891.600138 18328.782589 18515.938443 18335.297108 17785.277731 17498.296190 17449.180161 17658.754470 17889.701209 18244.792117 18598.170497 18826.740163 18883.655510 18547.537871 18667.768651 19572.450914 19669.579942 19080.848332 18696.056908 18912.867663 19384.982312 19567.000534 19243.987138 18778.899318 18612.991549 18746.508461 19043.377754 19349.873534 19620.109131 19457.467605 19174.633341 19189.117736 19159.404347 18889.108015 18593.448359 18342.909592 18243.568292 18121.207841 17779.657803 17536.591169 17597.755913 17645.793765 17617.503983 17663.105448 17744.121892 17764.636196 17704.199046 17452.214185 17084.127081 16832.213986 16851.514166 16969.444711 17051.329282 17151.400192 17215.717639 17147.137192 17070.216727 16919.371597 16878.408981 16962.411602 17013.292985 17068.475365 17072.452560 17094.921381 17112.503056 17087.670936 17013.635094 16990.771707 17112.220888 17292.104271 17445.930109 17575.653277 17746.931271 17994.124787 18157.707465 18271.690971 18287.646527 18301.773069 18289.356506 18331.185356 18247.312451 17955.905298 17575.537221 17250.866885 17029.892692 16808.476595 16433.796077 16084.878316 1110.380298 1955.246019 3714.498833 6224.022728 8348.603455 9090.650436 8325.243967 7147.099897 5923.800480 4346.802831 2670.987719 1254.552374 109.509358 -326.179738 -1113.497086 -3800.810263 -5499.310097 -1880.467406 4774.706353 6197.217387 4126.014386 1783.545312 275.549015 724.820699 3158.277355 5723.465599 7136.544789 7523.729426 7412.293031 7181.768832 7097.859110 7317.251503 7852.156438 8529.398551 9015.235898 9196.413295 9332.052936 9643.359832 9957.998099 10165.712985 10324.740738 10544.745474 10971.805105 11762.712398 12686.742679 13387.589653 13859.190041 14039.880169 13880.986580 13796.172240 14104.729910 14534.191400 14656.197535 14519.858957 14529.111673 14814.572767 15146.100180 15455.723329 15601.619153 15558.514324 15536.170780 15671.255381 15875.781666 16053.574824 16272.831434 16486.268716 16481.250863 16188.375638 15753.838680 15388.869684 15248.217453 15552.659986 16117.560896 16316.915616 16118.199739 16121.303678 16337.825698 16392.866793 16187.929063 15908.703735 15693.724619 15547.631757 15482.444891 15526.031447 15613.972186 15601.760709 15461.412444 15228.846636 14996.804197 15005.500180 15334.488414 15581.628896 15522.423166 15429.855005 15396.965027 15310.213016 15058.349294 14745.277316 14687.399050 15014.840141 15445.288731 15614.441320 15425.041506 15162.141630 15117.029401 15494.808109 16033.067797 16214.022244 15933.377060 15651.387973 15799.302470 16213.981614 16539.141717 16936.903597 17451.763518 17891.553620 18104.352244 18018.974725 17745.407862 17611.794897 17635.800611 17747.701114 17998.385303 18312.142896 18563.845051 18868.364398 19041.833287 18984.754180 19220.394975 19682.097781 19713.172813 19356.000514 19106.687855 19183.223649 19406.903073 19493.313815 19355.124685 19117.031829 18959.101459 19013.523928 19212.698932 19403.390328 19457.804178 19273.245017 19040.038559 18955.478101 18873.528985 18666.461343 18399.356080 18168.759220 17996.444287 17825.250778 17628.225032 17506.944299 17489.436808 17463.002857 17404.095048 17380.908617 17401.821278 17431.597279 17396.100121 17198.186384 16931.160012 16755.099089 16719.088802 16752.068421 16794.162083 16850.447359 16880.435715 16824.598695 16798.804198 16824.158062 16790.717277 16695.326630 16617.549238 16597.796331 16622.131475 16667.430660 16681.467314 16660.467287 16643.589339 16703.635965 16855.073744 17023.254002 17177.478359 17330.004077 17496.484260 17676.833095 17846.459495 17989.849458 18074.137008 18087.009802 18026.323125 17957.215601 17845.954676 17613.637947 17268.863792 16937.810497 16670.281862 16415.876690 16119.208859 15837.868129 15635.743556 697.695183 982.404081 1854.132030 3439.182261 5407.724823 7198.564980 8128.593173 8065.109286 7432.588186 6423.582955 4918.363866 3048.112186 1217.245820 -77.923653 -364.686498 -388.580577 -1890.298376 -4007.022857 -3669.440192 -1136.274777 389.547800 258.207373 182.112783 1163.359792 2865.874246 4536.288168 5692.320605 6288.293252 6497.331533 6559.334752 6642.477879 6827.049456 7159.943575 7680.490874 8312.441933 8812.035681 9071.673876 9240.351235 9475.334182 9746.013082 9993.024034 10268.962425 10635.338262 11150.980708 11865.765441 12658.699500 13335.069839 13795.356099 14000.940310 13989.002936 13978.063135 14168.131806 14443.250286 14567.417363 14549.031468 14575.844528 14724.939378 14935.389967 15161.444880 15344.816880 15414.210163 15438.658261 15525.333564 15680.374399 15851.944580 16021.037047 16139.152774 16110.147687 15906.414751 15626.196311 15401.805804 15342.497558 15540.735507 15861.888356 15988.337508 15924.965692 15943.306708 16056.708469 16075.877817 15939.370198 15736.048075 15553.208743 15422.162193 15362.872575 15373.699460 15410.881952 15406.685849 15310.032073 15130.905844 14980.750917 14999.160230 15188.548512 15354.764269 15361.944938 15292.327320 15218.195051 15098.837796 14905.971879 14724.897209 14703.424753 14894.613088 15163.874808 15290.347234 15217.899275 15102.945360 15136.800022 15416.698338 15786.925225 15950.366612 15839.806932 15713.531569 15818.142128 16116.834838 16462.227884 16851.182998 17285.833969 17669.476273 17883.997893 17888.881234 17780.738874 17719.901520 17755.548080 17871.942362 18084.739074 18339.549898 18576.497626 18811.538638 18971.602564 19051.494636 19256.992269 19552.036511 19610.101951 19440.816364 19282.593874 19257.778957 19319.152418 19341.589589 19277.523085 19158.204670 19076.913463 19135.370411 19285.949769 19395.877666 19361.005534 19185.378897 18986.123369 18842.940883 18708.741997 18519.552595 18286.780037 18068.990976 17889.775055 17733.744151 17595.999079 17499.202986 17441.393175 17388.129582 17331.013030 17290.680710 17279.888854 17277.604262 17221.692762 17065.177005 16873.897715 16737.031548 16666.796702 16643.326440 16652.388326 16679.413033 16693.637784 16665.118372 16652.036414 16691.384620 16686.590472 16590.987979 16483.186171 16432.593338 16446.790986 16483.770431 16501.567589 16502.480828 16533.738278 16643.494338 16808.586663 16965.935630 17101.861908 17241.946092 17388.388174 17526.525858 17648.642872 17752.591103 17831.176906 17841.528962 17782.266020 17693.836855 17577.076835 17387.040369 17115.331585 16818.157495 16535.471831 16264.593024 15993.018509 15732.397914 15545.628673 15467.214977 16084.878316 16475.240093 16815.477752 16795.050254 16444.986383 15918.295914 15226.745838 14396.608247 13499.139692 12641.196463 11903.240859 11117.005199 10338.134136 9584.895361 8743.257052 7870.022972 7407.378051 7069.769287 6713.038898 6297.015604 5894.800119 5288.406094 4752.577961 4311.255450 3923.339614 3589.052852 3300.980459 3050.531384 2831.949709 2640.445818 2471.659863 2321.558003 2186.530432 2063.488382 1949.896771 1843.752471 1743.529231 1648.106927 1556.697502 1468.775121 1384.014301 1302.237250 1223.370225 1147.408137 1074.386459 1004.359498 937.384159 873.508398 812.763584 755.160072 700.685294 649.303798 600.958655 555.573817 513.057013 473.302891 436.196169 401.614638 369.431878 339.519658 311.749944 285.996560 262.136477 240.050791 219.625411 200.751505 183.325748 167.250404 152.433294 138.787661 126.231983 114.689731 104.089121 94.362840 85.447786 77.284805 69.818453 62.996761 56.771028 51.095618 45.927787 41.227509 36.957327 33.082210 29.569416 26.388371 23.510546 20.909347 18.560004 16.439467 14.526302 12.800593 11.243837 9.838832 8.569514 7.420650 6.376999 5.420801 4.520039 3.643721 3.183740 15635.743556 15837.334675 16112.806651 16286.557368 16205.613112 15906.495365 15445.304838 14824.263318 14077.791420 13281.427006 12499.855294 11743.008484 10977.844665 10220.164694 9467.940211 8704.919573 7980.961067 7437.121898 7001.295606 6582.082304 6152.205436 5697.796929 5201.855698 4725.167408 4294.963759 3915.493166 3585.616276 3298.961547 3049.046682 2830.734801 2639.434925 2470.831811 2320.892385 2186.003286 2063.074541 1949.572175 1843.495611 1743.321832 1647.934080 1556.547454 1468.638905 1383.885320 1302.110867 1223.243397 1147.279087 1074.254389 1004.224342 937.246374 873.368784 812.623140 755.019879 700.546431 649.167274 600.825371 555.444538 512.932359 473.183334 436.082044 401.506153 369.329130 339.422650 311.658604 285.910753 262.056024 239.975481 219.555011 200.685770 183.264428 167.193252 152.380067 138.738124 126.185911 114.646913 104.049355 94.325936 85.413566 77.253103 69.789111 62.969633 56.745974 51.072508 45.906497 41.207923 36.939336 33.065709 29.554307 26.374560 23.497946 20.897876 18.549583 16.430023 14.517768 12.792909 11.236962 9.832771 8.564418 7.417141 6.377274 5.432397 4.573949 3.810435 3.305174 3.095578 15467.214977 15540.085096 15707.107475 15904.890164 16001.706886 15911.577398 15636.408416 15204.223908 14630.864356 13948.218423 13207.112496 12450.154242 11691.292617 10930.335304 10174.448931 9427.748336 8697.381328 8022.875796 7449.815590 6961.058207 6508.796540 6063.897212 5610.195575 5147.272509 4698.717035 4284.092534 3912.702151 3586.008462 3300.168681 3050.346265 2831.910958 2640.436197 2471.656936 2321.557056 2186.530133 2063.488293 1949.896747 1843.752465 1743.529229 1648.106926 1556.697502 1468.775121 1384.014301 1302.237250 1223.370225 1147.408137 1074.386459 1004.359498 937.384159 873.508398 812.763584 755.160072 700.685294 649.303798 600.958655 555.573817 513.057013 473.302891 436.196169 401.614638 369.431878 339.519658 311.749944 285.996560 262.136477 240.050791 219.625411 200.751505 183.325748 167.250404 152.433294 138.787661 126.231983 114.689731 104.089121 94.362840 85.447786 77.284805 69.818453 62.996761 56.771028 51.095618 45.927787 41.227509 36.957327 33.082210 29.569416 26.388371 23.510546 20.909347 18.560004 16.439469 14.526309 12.800617 11.243915 9.839087 8.570352 7.423393 6.385984 5.450126 4.618277 3.917408 3.394429 3.125747 3.047364 3.183740 2.906004 2.470105 2.127890 1.844359 1.600244 1.387741 1.202210 1.040208 0.898877 0.775727 0.668564 0.575439 0.494627 0.424598 0.363996 0.311628 0.266437 0.227494 0.193983 0.165186 0.140475 0.119300 0.101181 0.085698 0.072486 0.061228 0.051648 0.043509 0.036602 0.030750 0.025798 0.021615 0.018084 0.015110 0.012608 0.010506 0.008742 0.007264 0.006028 0.004995 0.004133 0.003416 0.002819 0.002323 0.001911 0.001571 0.001289 0.001056 0.000864 0.000706 0.000576 0.000469 0.000382 0.000310 0.000252 0.000204 0.000165 0.000133 0.000107 0.000087 0.000070 0.000056 0.000045 0.000036 0.000029 0.000023 0.000018 0.000015 0.000012 0.000009 0.000007 0.000006 0.000004 0.000004 0.000003 0.000002 0.000002 0.000001 0.000001 0.000000 0.000000 -0.000000 -0.000000 -0.000001 -0.000001 -0.000001 -0.000002 -0.000002 -0.000003 -0.000004 -0.000005 -0.000006 -0.000007 -0.000009 -0.000011 -0.000014 -0.000018 -0.000022 -0.000028 -0.000034 -0.000043 -0.000053 -0.000065 -0.000081 -0.000099 -0.000122 -0.000150 -0.000185 -0.000226 -0.000277 -0.000339 -0.000413 -0.000504 -0.000613 -0.000745 -0.000904 -0.001096 -0.001326 -0.001602 -0.001933 -0.002329 -0.002801 -0.003366 -0.004037 -0.004836 -0.005785 -0.006910 -0.008241 -0.009816 -0.011674 -0.013863 -0.016440 -0.019467 -0.023019 -0.027179 -0.032045 -0.037728 -0.044355 -0.052070 -0.061039 -0.071450 -0.083516 -0.097479 -0.113612 -0.132224 -0.153664 -0.178322 -0.206639 -0.239107 -0.276277 -0.318765 -0.367256 -0.422514 -0.485385 -0.556807 -0.637816 -0.729557 -0.833290 -0.950399 -1.082403 -1.230962 -1.397890 -1.585165 -1.794936 -2.029534 -2.291482 -2.583507 -2.908544 -3.269749 -3.670509 -4.114442 -4.605413 -5.147532 -5.745165 -6.402932 -7.125711 -7.918638 -8.787103 -9.736748 -10.773459 -11.903355 -13.132779 -14.468282 -15.916603 -17.484648 -19.179469 -21.008230 -22.978179 -25.096612 -27.370841 -29.808159 -32.415849 -35.201282 -38.172367 -41.339141 -44.719178 -48.355344 -52.394207 -57.081514 -59.883630 3.095578 3.005213 2.760235 2.424486 2.114110 1.839231 1.597800 1.386208 1.201046 1.039240 0.898041 0.774998 0.667924 0.574879 0.494137 0.424169 0.363622 0.311301 0.266153 0.227247 0.193769 0.165001 0.140315 0.119162 0.101061 0.085594 0.072397 0.061152 0.051583 0.043453 0.036554 0.030709 0.025763 0.021585 0.018059 0.015089 0.012590 0.010490 0.008729 0.007253 0.006018 0.004987 0.004127 0.003410 0.002814 0.002319 0.001908 0.001568 0.001287 0.001054 0.000863 0.000705 0.000575 0.000469 0.000381 0.000310 0.000251 0.000204 0.000165 0.000133 0.000107 0.000086 0.000069 0.000056 0.000045 0.000036 0.000029 0.000023 0.000018 0.000014 0.000012 0.000009 0.000007 0.000006 0.000004 0.000003 0.000003 0.000002 0.000002 0.000001 0.000001 0.000000 0.000000 -0.000000 -0.000000 -0.000001 -0.000001 -0.000001 -0.000002 -0.000002 -0.000003 -0.000004 -0.000005 -0.000006 -0.000007 -0.000009 -0.000011 -0.000014 -0.000018 -0.000022 -0.000028 -0.000034 -0.000043 -0.000053 -0.000065 -0.000080 -0.000099 -0.000122 -0.000150 -0.000184 -0.000226 -0.000277 -0.000338 -0.000413 -0.000503 -0.000612 -0.000744 -0.000903 -0.001094 -0.001324 -0.001599 -0.001930 -0.002325 -0.002797 -0.003361 -0.004032 -0.004830 -0.005777 -0.006900 -0.008230 -0.009803 -0.011659 -0.013846 -0.016419 -0.019443 -0.022991 -0.027147 -0.032008 -0.037685 -0.044305 -0.052013 -0.060973 -0.071375 -0.083430 -0.097380 -0.113499 -0.132096 -0.153517 -0.178156 -0.206450 -0.238893 -0.276035 -0.318492 -0.366948 -0.422168 -0.484996 -0.556370 -0.637327 -0.729011 -0.832681 -0.949721 -1.081649 -1.230125 -1.396963 -1.584141 -1.793805 -2.028287 -2.290112 -2.582002 -2.906895 -3.267946 -3.668541 -4.112298 -4.603081 -5.145001 -5.742423 -6.399968 -7.122512 -7.915193 -8.783400 -9.732776 -10.769207 -11.898814 -13.127939 -14.463133 -15.911138 -17.478861 -19.173354 -21.001783 -22.971397 -25.089490 -27.363366 -29.800293 -32.407455 -35.191906 -38.160509 -41.319860 -44.676013 -48.232827 -51.974411 -55.767901 -58.457631 -59.508377 3.047364 3.021940 2.908697 2.677226 2.393529 2.104821 1.837302 1.598091 1.387084 1.202009 1.040147 0.898858 0.775722 0.668562 0.575439 0.494627 0.424598 0.363996 0.311628 0.266437 0.227494 0.193983 0.165186 0.140475 0.119300 0.101181 0.085698 0.072486 0.061228 0.051648 0.043509 0.036602 0.030750 0.025798 0.021615 0.018084 0.015110 0.012608 0.010506 0.008742 0.007264 0.006028 0.004995 0.004133 0.003416 0.002819 0.002323 0.001911 0.001571 0.001289 0.001056 0.000864 0.000706 0.000576 0.000469 0.000382 0.000310 0.000252 0.000204 0.000165 0.000133 0.000107 0.000087 0.000070 0.000056 0.000045 0.000036 0.000029 0.000023 0.000018 0.000015 0.000012 0.000009 0.000007 0.000006 0.000004 0.000004 0.000003 0.000002 0.000002 0.000001 0.000001 0.000000 0.000000 -0.000000 -0.000000 -0.000001 -0.000001 -0.000001 -0.000002 -0.000002 -0.000003 -0.000004 -0.000005 -0.000006 -0.000007 -0.000009 -0.000011 -0.000014 -0.000018 -0.000022 -0.000028 -0.000034 -0.000043 -0.000053 -0.000065 -0.000081 -0.000099 -0.000122 -0.000150 -0.000185 -0.000226 -0.000277 -0.000339 -0.000413 -0.000504 -0.000613 -0.000745 -0.000904 -0.001096 -0.001326 -0.001602 -0.001933 -0.002329 -0.002801 -0.003366 -0.004037 -0.004836 -0.005785 -0.006910 -0.008241 -0.009816 -0.011674 -0.013863 -0.016440 -0.019467 -0.023019 -0.027179 -0.032045 -0.037728 -0.044355 -0.052070 -0.061039 -0.071450 -0.083516 -0.097479 -0.113612 -0.132224 -0.153664 -0.178322 -0.206639 -0.239107 -0.276277 -0.318765 -0.367256 -0.422514 -0.485385 -0.556807 -0.637816 -0.729557 -0.833290 -0.950399 -1.082403 -1.230962 -1.397890 -1.585165 -1.794936 -2.029534 -2.291482 -2.583507 -2.908544 -3.269749 -3.670509 -4.114442 -4.605413 -5.147532 -5.745165 -6.402932 -7.125711 -7.918638 -8.787103 -9.736748 -10.773459 -11.903355 -13.132779 -14.468282 -15.916603 -17.484648 -19.179469 -21.008229 -22.978174 -25.096595 -27.370785 -29.807978 -32.415259 -35.199360 -38.166103 -41.318734 -44.652668 -48.139171 -51.678722 -54.994214 -57.632238 -58.961575 -59.301577 -59.883630 -63.449144 -69.958830 -76.268472 -82.574024 -89.035000 -95.688844 -102.543348 -109.596437 -116.842273 -124.273054 -131.879555 -139.651272 -147.576480 -155.642245 -163.834463 -172.137893 -180.536223 -189.012143 -197.547442 -206.123122 -214.719530 -223.316503 -231.893522 -240.429881 -248.904853 -257.297864 -265.588660 -273.757481 -281.785233 -289.653671 -297.345607 -304.845159 -312.138084 -319.212234 -326.058236 -332.670533 -339.048996 -345.201327 -351.146279 -356.916929 -362.561374 -368.134853 -373.673313 -379.135227 -384.296507 -388.519483 -390.304225 -387.735631 -377.926969 -359.340420 -345.746761 -339.245216 -329.057449 -351.455766 -422.749012 -480.166376 -519.225822 -509.139005 -477.017379 -475.036715 -504.581210 -519.483437 -495.491599 -505.264654 -464.759641 -10.189604 312.065787 -28.157291 -297.726285 78.556818 872.423523 973.759919 1076.826442 1618.452108 2419.580929 1845.213134 220.335357 -711.456569 -506.407084 -135.130066 41.274141 363.147765 953.709990 777.108434 -232.143705 -670.650459 -624.180996 -80.852534 264.269107 866.557242 2320.790058 3993.153633 5196.663519 5404.674045 6019.289742 6134.538329 5115.767079 4175.565021 3262.867642 2356.731990 -59.508377 -61.066145 -64.848982 -70.414525 -76.385214 -82.602183 -89.036835 -95.682902 -102.535231 -109.587890 -116.833866 -124.265000 -131.871957 -139.644202 -147.569996 -155.636403 -163.829314 -172.133488 -180.532608 -189.009359 -197.545525 -206.122103 -214.719433 -223.317344 -231.895311 -240.432618 -248.908532 -257.302469 -265.594171 -273.763867 -281.792456 -289.661683 -297.354349 -304.854559 -312.148048 -319.222638 -326.068912 -332.681242 -339.059390 -345.210905 -351.154372 -356.922782 -362.564509 -368.135931 -373.675654 -379.147718 -384.341132 -388.679050 -390.810402 -388.677534 -380.456771 -365.519113 -350.007935 -345.460202 -353.391748 -376.924045 -429.260959 -492.286165 -522.977331 -507.326976 -481.914389 -464.763264 -464.505653 -484.617691 -491.778512 -485.989002 -456.982280 -280.598831 10.350828 132.564266 240.896399 632.340176 971.294650 994.649446 1060.193616 1423.579959 1777.867873 1383.207171 409.276662 -141.919648 -59.631352 94.256226 213.441659 523.940389 926.510275 661.184119 -224.256927 -813.256794 -1044.439507 -881.211594 -719.620404 -420.502259 171.215666 1076.188776 1812.620057 2121.066532 2488.121538 2685.639153 2656.481301 2477.262341 1910.446421 1404.585555 1110.380298 -59.301577 -59.868482 -61.858170 -65.720693 -70.763679 -76.510557 -82.648554 -89.057865 -95.695863 -102.545502 -109.597099 -116.842476 -124.273117 -131.879574 -139.651278 -147.576481 -155.642246 -163.834463 -172.137893 -180.536223 -189.012143 -197.547442 -206.123122 -214.719530 -223.316503 -231.893522 -240.429881 -248.904853 -257.297864 -265.588660 -273.757481 -281.785233 -289.653671 -297.345607 -304.845159 -312.138084 -319.212234 -326.058236 -332.670533 -339.048996 -345.201328 -351.146283 -356.916948 -362.561469 -368.135210 -373.674475 -379.139831 -384.318793 -388.658925 -390.909403 -389.067328 -381.886247 -370.364633 -358.765551 -354.190577 -360.815447 -381.670504 -422.248556 -470.571352 -496.086947 -490.631308 -473.644721 -457.168551 -449.455429 -455.300288 -460.185502 -449.889044 -408.722817 -282.109355 -67.503355 139.415128 358.163926 642.922511 855.687929 949.403816 1084.046820 1347.892053 1515.972410 1252.866014 674.435596 290.699667 237.041132 292.266581 379.063470 539.420895 623.449785 313.341781 -337.272550 -917.020635 -1237.152024 -1303.494384 -1279.992523 -1107.205291 -744.024450 -250.414666 229.391237 602.982177 941.960343 1191.858914 1331.470617 1331.565894 1132.156701 938.243042 784.124733 697.695183 1822.380061 4428.335495 3302.620556 -8601.358664 6727.707593 -517.746708 5818.916961 -1148.716670 -5895.331301 519.965676 482.198832 -7105.639358 3570.303972 7830.864561 9150.099040 6232.223824 10010.532142 4091.841525 8774.586426 7026.258113 -10602.357657 916.345325 -2979.221948 950.897669 -6145.933711 4430.378507 -9618.169389 754.696414 7695.238633 8234.942330 684.726177 8457.642372 8068.422503 -4714.602121 144.142662 8035.774873 9117.755475 6797.434030 10551.501251 10621.112133 4827.639124 1998.851905 -11005.109436 -3421.420417 -6802.379269 5115.163202 49824.009050 -6483.692480 4853.199189 4801.363224 -99.923342 6696.253772 8018.550817 9285.721302 5438.337888 9906.364954 9157.176695 9022.095872 9049.411253 9620.518926 6686.771600 3029.955365 -917.573699 2147.438794 6221.078400 -7541.306132 -334.752295 951.750178 -1682.699505 9343.652757 7657.337024 1792.585639 -8010.259483 -3460.357812 9280.885722 9585.468372 8725.504814 8260.622104 10407.317886 10183.815547 -3865.100361 6839.225318 -3709.576157 2327.868580 993.306741 6474.877454 10994.933964 1346.254015 2829.726959 3726.091437 6461.881835 2532.387816 5904.301374 6561.137253 4606.524831 10740.402805 2721.636609 4383.943213 9487.655327 6711.004634 4086.531448 7114.282339 24522.547457 -5588.786407 2693.706525 -5311.574877 7424.109047 -4740.300707 8696.574410 2767.112379 5577.747993 4866.352648 9272.664461 3926.015405 3736.663304 6362.075040 1700.604623 7767.938452 3984.556177 9167.215876 10788.005075 1854.962913 6085.951188 6934.970648 6610.097672 4103.220954 8386.612138 2343.775350 -6722.292016 42845.769873 -8095.786900 4249.593336 -672.576698 4581.393750 38695.445905 51421.786952 2399.593008 6523.894997 4564.846586 5203.749084 -1085.921930 11306.785516 13878.335441 7217.461616 4608.174981 -4366.761017 -6845.253140 8975.483544 9170.140781 13815.983777 -6563.375479 4220.042930 1261.366704 47267.175827 -3771.375981 6675.142694 -1293.002175 -3191.687646 5541.596801 8163.942855 6341.809025 8675.095315 7994.808228 54043.226500 50228.661917 5381.210232 8302.920343 27534.728708 2692.921650 -7327.363059 22777.615557 1326.343091 4442.854124 4432.892181 5348.238296 4278.136383 -2288.792638 4687.736985 6026.704120 6892.960769 755.785636 6826.226971 5242.653817 9691.426553 3065.365965 26222.962085 62970.524242 5923.537601 6815.580673 8082.145695 -2256.903456 -1207.862961 8354.072449 -2210.581066 3876.778843 23321.629280 -532.257689 3529.842881 8986.319649 4143.050132 -2583.649194 4422.618552 10093.259099 6532.451161 5199.042203 4420.365590 351.134085 6027.567613 2803.933763 49716.257482 7495.518892 7527.199939 6120.355682 10344.211138 7075.365679 40285.134694 6615.644348 9660.626949 -1839.086872 8433.987985 7800.648092 46936.080155 59925.575715 9525.157366 5961.911800 3950.077721 6900.969370 3751.316059 7706.893704 9688.613637 8602.235873 -4802.283278 4874.896956 4079.283632 7081.450193 9318.516703 -2497.422690 -2406.204194 8765.616191 1430.167364 60666.780802 11248.842514 3668.750548 -4853.187717 9894.699712 -6313.259804 8368.657514 7960.250062 9244.140344 5792.375683 4783.745158 7263.579283 4947.033043 6810.461866 7827.702473 5746.053701 -660.739267 11722.696001 12709.034133 8512.073614 6205.060651 10959.041460 8055.980868 7821.887896 2063.011996 7013.405921 9626.303117 6161.306314 8553.292057 8860.185705 3231.927837 6808.075381 7753.866291 9248.977493 8478.620301 9257.711835 8479.300068 10096.443238 1806.584444 4735.700939 5791.743207 10516.088900 8070.383938 8294.551656 11495.367178 3835.833019 10974.899089 4610.449900 6704.975909 3435.390312 5554.855503 8195.272206 5498.878954 8336.065919 5033.381063 8322.537477 12696.872594 8351.345195 10426.034167 11309.443949 4034.770915 8606.722422 10291.285103 31081.726717 5725.749510 8056.876117 9182.927341 6297.580248 5940.779542 9814.224778 11287.259495 11753.405551 425.433420 7210.708286 4935.822110 7331.108361 9699.347625 8546.772146 5637.569934 11660.150832 6560.390405 9667.455509 13726.154830 8673.394821 6360.332822 -5612.831737 7237.796900 6394.894121 9984.937984 8428.510066 12895.882750 10987.784138 13001.452919 9512.641344 9057.202872 12014.114648 9622.361273 2714.449832 -6553.272111 -5128.418330 10568.076585 7228.881255 5098.157915 6478.579586 5628.638921 5004.565427 14037.828405 12602.322029 12194.506894 10024.525383 8621.323463 11569.716738 6589.579965 14068.490323 12361.961717 11982.576480 8683.291038 13758.479796 11100.253473 778.434793 13520.910010 13776.688856 7127.763045 14021.676861 14231.880536 12256.616395 12546.923718 16358.635577 11716.727965 8520.923971 9174.554689 16347.684105 12136.964430 13734.862950 11395.965208 9085.767776 13276.051937 9911.567087 10374.956896 6873.681527 12843.437451 9185.717936 12186.686207 14267.154918 13802.171835 10514.936105 12044.564918 8841.249391 7274.907347 13799.232542 16341.439347 13457.279744 13750.888424 12429.012362 13679.868928 13876.805942 11616.618233 6770.309932 -6579.697728 -5015.033495 11301.841043 7841.792124 15060.484194 10913.756053 8200.841697 14578.147147 15538.875682 9755.290437 9586.895568 11551.496434 14442.457018 9182.251518 14693.962794 9748.968562 14625.744577 13645.661881 13413.775749 13357.706676 12916.157263 6320.409568 15102.612496 10383.982209 13124.354749 6474.570978 7299.377096 10586.071827 12212.551518 11192.119493 13149.362587 10127.996134 11922.125204 14415.011059 10571.431686 15597.930723 14350.194287 13609.900715 11038.672796 12168.914792 9821.253748 -4898.252253 9752.309795 7573.229849 8225.659626 7341.743046 9176.356501 8052.005082 7693.309347 12680.743978 6066.625028 8372.723897 15605.288379 9430.320538 12818.904308 17169.431592 13431.029840 15092.409198 13432.486421 10443.848348 2692.820863 13416.676164 11946.074465 10456.122361 9659.022770 6706.626224 10107.376848 6283.480377 11515.845664 13767.157305 14862.602840 8546.390003 10981.027725 10666.295224 15757.792019 13216.498529 14771.674100 15959.671822 8867.012849 16022.255877 10661.841851 9196.051364 11338.318227 15582.256885 9014.980615 9996.948743 14019.328873 8339.557411 14246.483216 11412.996324 12767.865877 13446.464326 13430.150123 13070.846362 15135.241166 13422.923631 17053.331590 14144.136673 14488.597466 16029.927545 8883.259248 10894.132020 9524.511768 12689.760909 13365.722138 12771.435298 10086.481588 14127.151639 11857.402485 14883.306000 11139.943014 15551.952225 15142.660056 12401.883928 16977.191188 15581.991566 13696.104354 12332.347829 15932.482272 11047.161744 10367.524347 10696.205653 16717.161804 14352.871552 9978.764305 13490.801546 7506.897920 11318.444095 12314.866127 7685.262815 13231.321258 16320.911709 14063.143468 10902.586512 13581.258173 15673.461715 12625.671136 12494.832093 17301.767460 13011.766080 8916.439603 9330.374046 9292.835924 7099.017455 8922.382526 9676.068028 7979.120386 7809.438635 11057.314445 11418.326331 14743.954584 13535.809511 14215.342452 10841.006599 9788.397817 14644.316588 16602.700609 14401.664726 13541.281069 16275.657687 8923.183930 13964.951500 6693.841548 6277.045133 4751.904745 10187.153805 12806.348743 10087.745530 10471.847125 11069.010046 6267.676047 16291.154867 9507.686291 14785.349640 16204.894584 15380.186271 15740.232844 15922.292504 16137.116561 16630.378472 15933.557236 15850.026093 1703.499495 5519.209855 2732.665623 6760.851333 12052.717192 12158.844700 7911.530873 10291.421108 8368.249345 8865.509820 12057.588212 13864.912688 8699.072880 14857.215124 14697.496504 16323.819119 14648.804926 14467.256883 14638.731716 8725.818028 1193.245828 1896.914055 2161.140668 4813.194627 2462.709385 6910.237138 9043.084748 14096.707018 6418.837396 9018.102062 7667.766399 8118.577949 11114.339544 10080.883529 14139.328886 16474.065722 11250.381472 16372.884357 8941.925152 14750.485468 1380.216153 1706.636682 1756.752641 1387.521697 10382.518020 4474.771835 6998.051906 7947.127239 6582.963836 9379.304109 5350.237322 9579.269247 7703.031058 14216.013495 10685.753621 17114.822484 12789.233243 15411.219613 12182.453502 13506.125147 1452.965520 1370.977666 2580.394178 2127.712578 2515.162119 4525.565124 5436.188616 8259.334975 6336.760365 7221.408870 5066.697587 8138.783328 15916.587043 9119.985038 9864.006195 14029.656596 12413.288176 12413.296585 11319.911252 12455.174343 1527.366761 1757.085326 3663.120002 1654.976237 2719.682308 5849.164460 3635.854900 4672.745455 6587.722015 4681.945667 8759.496891 8574.743767 7989.837945 7288.603949 12109.068485 11524.848598 11119.174792 16280.609074 9016.951404 9035.602002 1287.521906 1702.448263 1887.175038 1696.220431 4256.937153 3911.304052 5665.619201 8557.047241 5668.446149 7993.237923 8674.743824 10178.477843 10261.482076 12485.773148 13043.029648 16831.124822 14504.912467 16667.183729 11763.485589 12374.528162 -1481.140113 3656.385238 2628.976542 2134.295690 2582.058825 2162.287702 2524.860540 4063.997621 3729.878509 4371.718092 11102.748725 8632.260359 10620.911282 6488.848729 9300.941534 14075.984574 15782.156206 16329.136923 14737.151027 9722.627356 1609.003864 1265.374126