<VTKFile type="PolyData">
<PolyData>
<Piece NumberOfPoints="6715" NumberOfVerts="6715" NumberOfLines="0" NumberOfStrips="0" NumberOfPolys="0">
<PointData>
<DataArray type="Float64" Name="Pressure" format="ascii">
 -588.400808 -1351.433811 -1422.492796 441.745075 4205.746741 9525.642460 13511.098644 14329.625327 13980.227095 13885.240293 13068.637391 12088.705462 11989.128278 14563.760941 13086.608856 -6269.319867 -21799.664087 -18525.491481 -5124.446288 1901.072101 -1790.639096 -3689.657077 101.737175 5788.167166 9160.828039 6654.218615 3684.951117 3770.309749 4705.675693 5768.606564 6478.335604 6851.244190 7095.894624 7506.212927 7486.929943 7437.671909 8332.879631 9328.834237 10133.144895 11112.999374 12151.279985 12632.343288 12761.515366 13032.758585 13459.560544 14440.597555 14609.505415 13802.553170 13703.687123 14347.389301 14690.556292 14787.987236 14815.198435 15166.874301 15910.486935 15808.983784 14586.070977 14295.495629 14726.897725 15402.155428 15702.346326 15644.792613 15705.064688 15456.098862 15089.660355 14773.050345 14586.253643 14184.548928 13980.545936 14200.673276 14896.205913 15225.085063 15181.489513 14870.805869 14706.870854 14677.030682 14907.775721 14868.944105 14385.670417 13876.913967 13638.121635 13636.002701 14058.573914 14704.378080 15284.485765 15593.727404 15010.340481 13999.449236 13488.253170 13830.958362 14190.196847 14372.961375 14618.191430 14694.199476 14869.394802 15049.578486 15095.102513 15082.506312 14988.287603 14256.371269 13619.980783 13610.712527 14133.051270 15032.279985 16170.053036 16547.640803 16046.437240 15104.953097 14609.641271 15527.269583 16479.311800 17044.188201 17180.485423 17363.272005 17526.126641 17648.277846 18010.166883 18311.151054 18344.204607 18039.063913 18227.568092 18522.212202 18899.729690 19443.315540 19563.138177 19417.044249 18568.487361 18327.720627 18680.639139 18386.039477 18074.724406 18182.830973 18935.085341 19406.932889 19525.326537 19064.667670 18863.674876 18856.875876 18956.254499 18996.706554 18828.944686 18368.489608 18348.680260 18536.664134 18506.857501 18274.369912 17879.238740 17700.952200 17418.179552 17213.952628 17002.687719 16867.981361 16771.320153 16553.562070 16513.785037 16737.406271 16885.806964 16892.799097 16893.516190 16992.147527 17002.391727 16840.048304 16468.213422 16160.027185 15927.208139 15778.577509 15737.753772 15579.738975 15320.016768 15341.984545 15354.471913 15438.858165 15484.206811 15563.563507 15665.076284 16092.332435 16034.280034 15941.717823 15994.572243 15971.860686 15986.723627 16052.736998 16312.341814 16459.762562 16304.961027 16173.191628 16226.331520 16254.815377 16306.054489 16197.410717 16057.085052 16019.978952 16390.990161 16607.264618 16565.914264 16145.522512 15644.799876 15436.365326 15388.997391 15130.433889 14750.748387 1446.471245 374.673124 -986.218071 -2105.378364 -2137.930778 -430.174972 2612.954727 5741.486998 7684.856400 8574.732815 8975.753176 8376.373829 6868.478720 5428.250334 3999.565371 2377.708614 -1200.056554 -2938.082376 -2938.677242 -3362.474399 -6181.303932 -7842.779250 -5270.867295 612.023365 4029.657625 4202.207094 3275.870499 3111.304088 3851.539200 4721.675635 5368.638897 5796.883305 6049.033434 6428.766489 6972.093668 7255.206440 7561.811100 8356.952492 9300.279743 10306.312234 11319.062572 12132.166352 12507.655255 12635.710840 12828.088568 13244.008182 13896.638919 13966.061311 13460.395740 13503.878827 13912.683497 14244.333317 14407.838016 14407.876495 14639.887951 15067.780103 15271.847674 14981.132494 14571.620986 14576.591431 14932.645369 15116.506920 15019.501810 14835.795960 14624.972787 14453.043496 14308.190505 14138.004891 13960.977730 13956.620303 14074.513510 14332.076871 14659.235864 14758.939712 14545.619558 14351.622161 14261.847318 14263.319033 14174.706585 13874.712827 13499.430742 13245.647044 13251.741195 13533.514308 14014.729908 14447.913937 14639.060783 14383.674363 13744.784576 13340.266585 13587.202977 13984.221660 14141.209331 14274.708142 14412.880504 14565.756661 14756.810079 14891.096477 14763.349443 14507.002290 14210.446446 13939.593493 13938.138125 14342.395976 14986.081826 15703.360525 16138.435017 15932.587355 15234.556563 14868.160532 15403.225915 16260.242018 16592.142255 16824.735270 17164.133580 17471.618001 17702.796245 17879.443107 18085.128572 18247.139646 18191.949321 18247.287049 18606.003615 18866.782061 19108.980441 19418.840989 19221.076028 18620.780763 18666.283154 19155.553132 19143.108193 18709.585111 18637.073672 18911.129750 19258.222332 19408.001117 19327.323013 19055.863685 18812.734126 18739.067160 18628.115609 18434.307840 18246.900375 18210.149395 18241.792723 18185.063454 18001.818220 17744.797643 17491.419949 17259.419138 17041.230304 16830.175550 16672.486854 16564.340890 16443.733342 16396.342804 16507.415785 16646.366160 16696.228922 16721.488343 16786.467079 16766.590713 16580.256993 16273.349984 15969.208171 15745.738144 15615.187040 15500.184213 15306.510405 15045.599816 14975.906118 15117.103487 15272.482233 15281.234315 15302.854184 15478.985828 15663.448804 15666.572446 15670.992854 15742.951594 15718.872081 15640.968678 15688.882348 15804.452244 15787.486819 15712.423559 15672.904265 15691.070398 15762.707896 15826.104654 15777.067513 15661.470316 15569.266422 15690.782677 15883.332016 15857.367414 15463.269133 15036.285389 14866.607895 14840.704588 14680.558235 14407.957481 14187.257914 2431.218794 1916.051565 679.576560 -980.268208 -2428.155244 -3127.813012 -2590.431604 -822.952003 1586.072306 3784.225779 5187.081865 5540.904148 4917.068821 3569.267072 1549.108907 -939.088615 -2974.411271 -3280.836994 -2258.026410 -1552.711539 -2605.391740 -4554.476250 -5047.239952 -3021.725514 113.462215 1934.930300 2273.332361 2416.985266 3044.738667 3946.940717 4745.649930 5269.368802 5589.077251 5802.383511 6126.328515 6602.045587 7101.295613 7671.547270 8418.512486 9332.287605 10344.657318 11276.843467 11965.770865 12344.663477 12537.181874 12718.740497 12990.875009 13241.316092 13255.638158 13163.673213 13275.763098 13557.331545 13858.791245 14069.803555 14214.756576 14438.807274 14696.336680 14879.299412 14926.582155 14815.332994 14780.887669 14866.385207 14911.379579 14810.536147 14607.731543 14413.249506 14246.015489 14098.013627 13946.036661 13827.740176 13801.916280 13879.098203 14029.886669 14212.245113 14277.035978 14164.975075 13988.456481 13881.840966 13826.864572 13736.674440 13537.611392 13285.352589 13119.785371 13146.369751 13362.247080 13691.911867 13988.322295 14088.191444 13932.293786 13619.646466 13411.713790 13488.078909 13714.625639 13895.672170 14038.007830 14198.354442 14384.454520 14597.095340 14743.255817 14694.886992 14479.718895 14259.662425 14110.264043 14168.786235 14516.783480 15045.729715 15554.305112 15845.969268 15774.510187 15488.412286 15391.623005 15698.304841 16199.308265 16573.820799 16855.050724 17136.504612 17407.955366 17650.298282 17844.939294 18011.940177 18124.701506 18198.403101 18327.301874 18568.957258 18817.518810 19018.492832 19135.977977 19034.791499 18812.689462 18793.815642 19016.401184 19044.318735 18929.222430 18964.129140 19128.282872 19304.691190 19349.847146 19247.193730 19036.242449 18814.626437 18646.747193 18485.046090 18307.494589 18181.827198 18133.289489 18103.031252 18012.346934 17841.068848 17621.622348 17387.987541 17178.408651 16984.989120 16814.857432 16674.604615 16546.547239 16432.737604 16384.232000 16429.742668 16512.640229 16560.309185 16577.836206 16584.489087 16520.927840 16351.785726 16112.765512 15847.489931 15630.981567 15483.413442 15342.927255 15171.644776 14990.619823 14899.563415 14971.367140 15088.398186 15170.937494 15257.434452 15383.930186 15482.885131 15536.006082 15573.036704 15605.485899 15572.466264 15505.888206 15510.481279 15546.014247 15549.603840 15539.845764 15539.338990 15541.493073 15547.671782 15532.747100 15496.428284 15451.128492 15446.777203 15507.859687 15584.290310 15525.875418 15292.955130 15015.947465 14823.663420 14678.204979 14484.736023 14256.951748 14077.973697 13998.593690 14750.748387 15266.194331 15659.049623 15570.211527 15092.124295 14540.132924 14016.002966 13423.935295 12674.009414 11915.495155 11340.942958 10678.541714 9898.824227 9187.550236 8415.143413 7574.248553 7229.615304 7017.009416 6531.012743 5942.595008 5482.963456 4857.798500 4306.725206 3892.015935 3534.803725 3245.349394 3006.420008 2805.533948 2633.506581 2483.222393 2349.237061 2227.430318 2114.694001 2008.704129 1907.757913 1810.650001 1716.573354 1625.036010 1535.789012 1448.763513 1364.016424 1281.684495 1201.946752 1124.994976 1051.011674 980.154718 912.547731 848.275146 787.380962 729.870205 675.712275 624.845461 577.182038 532.613511 491.015683 452.253328 416.184326 382.663204 351.544060 322.682901 295.939426 271.178333 248.270206 227.092056 207.527589 189.467253 172.808128 157.453705 143.313582 130.303131 118.343132 107.359420 97.282530 88.047377 79.592945 71.862020 64.800932 58.359334 52.490001 47.148648 42.293763 37.886463 33.890350 30.271386 26.997773 24.039835 21.369907 18.962233 16.792855 14.839519 13.081565 11.499837 10.076573 8.795301 7.640679 6.598208 5.653472 4.789881 3.978115 3.189970 2.776865 14187.257914 14431.786707 14775.345455 14951.789254 14779.258680 14408.166602 13948.957765 13413.589624 12821.352115 12175.238222 11543.481252 10942.431755 10308.147660 9642.657284 8976.748431 8308.865441 7685.382778 7219.151179 6797.568913 6316.305492 5807.632742 5301.602121 4777.281260 4292.347562 3875.071542 3527.986747 3242.115826 3004.425564 2804.160230 2632.521184 2482.499627 2348.702370 2227.035048 2114.402331 2008.488111 1907.595249 1810.522814 1716.467478 1624.940504 1535.695769 1448.666883 1363.912838 1281.572087 1201.824997 1124.864351 1050.873349 980.010304 912.399055 848.124094 787.229346 729.719684 675.564300 624.701246 577.042555 532.479500 490.887668 452.131641 416.069137 382.554547 351.441862 322.587004 295.849614 271.094347 248.191761 227.018855 207.459331 189.403642 172.748878 157.398542 143.262248 130.255383 118.298743 107.318179 97.244241 88.011855 79.560021 71.831534 64.772733 58.333281 52.465962 47.126497 42.273381 37.867737 33.873173 30.255657 26.983396 24.026717 21.357962 18.951379 16.783016 14.830621 13.073542 11.492630 10.070140 8.789640 7.635921 6.594906 5.653592 4.800176 4.026385 3.339321 2.885104 2.696679 13998.593690 14081.702496 14267.472396 14476.007167 14554.692451 14409.890289 14084.564421 13650.264252 13143.444577 12583.363730 11988.334718 11384.220352 10776.662030 10155.219901 9521.558797 8885.958935 8264.610793 7691.637898 7186.305915 6712.932687 6227.416684 5726.378819 5221.892770 4726.016566 4268.136745 3867.072950 3527.183170 3243.184594 3005.744114 2805.312920 2633.439048 2483.203070 2349.231334 2227.428560 2114.693476 2008.703976 1907.757868 1810.649988 1716.573351 1625.036009 1535.789011 1448.763513 1364.016424 1281.684495 1201.946752 1124.994976 1051.011674 980.154718 912.547731 848.275146 787.380962 729.870205 675.712275 624.845461 577.182038 532.613511 491.015683 452.253328 416.184326 382.663204 351.544060 322.682901 295.939426 271.178333 248.270206 227.092056 207.527589 189.467253 172.808128 157.453705 143.313582 130.303131 118.343132 107.359420 97.282530 88.047377 79.592945 71.862020 64.800932 58.359334 52.490001 47.148648 42.293763 37.886463 33.890350 30.271386 26.997773 24.039835 21.369907 18.962233 16.792856 14.839521 13.081572 11.499858 10.076643 8.795530 7.641429 6.600664 5.661523 4.816162 4.066188 3.435250 2.964920 2.723350 2.652841 2.776865 2.529626 2.142518 1.839718 1.589684 1.375088 1.188855 1.026755 0.885646 0.762922 0.656319 0.563846 0.483743 0.414454 0.354605 0.302984 0.258523 0.220285 0.187444 0.159281 0.135163 0.114539 0.096928 0.081912 0.069126 0.058256 0.049026 0.041202 0.034578 0.028979 0.024253 0.020269 0.016916 0.014097 0.011732 0.009750 0.008091 0.006705 0.005549 0.004585 0.003784 0.003118 0.002565 0.002108 0.001729 0.001417 0.001159 0.000947 0.000772 0.000629 0.000512 0.000416 0.000337 0.000273 0.000221 0.000178 0.000144 0.000116 0.000093 0.000075 0.000060 0.000048 0.000038 0.000030 0.000024 0.000019 0.000015 0.000012 0.000010 0.000008 0.000006 0.000005 0.000004 0.000003 0.000002 0.000002 0.000001 0.000001 0.000001 0.000000 0.000000 0.000000 -0.000000 -0.000000 -0.000000 -0.000001 -0.000001 -0.000001 -0.000001 -0.000002 -0.000002 -0.000003 -0.000004 -0.000005 -0.000006 -0.000008 -0.000010 -0.000012 -0.000015 -0.000019 -0.000024 -0.000030 -0.000037 -0.000046 -0.000057 -0.000071 -0.000087 -0.000108 -0.000133 -0.000164 -0.000202 -0.000248 -0.000304 -0.000372 -0.000454 -0.000555 -0.000676 -0.000823 -0.001000 -0.001214 -0.001471 -0.001780 -0.002151 -0.002596 -0.003127 -0.003762 -0.004518 -0.005419 -0.006491 -0.007762 -0.009269 -0.011052 -0.013158 -0.015643 -0.018569 -0.022011 -0.026052 -0.030789 -0.036335 -0.042816 -0.050378 -0.059188 -0.069437 -0.081340 -0.095143 -0.111125 -0.129599 -0.150921 -0.175492 -0.203762 -0.236237 -0.273483 -0.316135 -0.364899 -0.420563 -0.484003 -0.556190 -0.638200 -0.731221 -0.836564 -0.955669 -1.090120 -1.241650 -1.412156 -1.603704 -1.818544 -2.059121 -2.328081 -2.628285 -2.962819 -3.335001 -3.748392 -4.206804 -4.714305 -5.275229 -5.894178 -6.576022 -7.325910 -8.149258 -9.051756 -10.039356 -11.118267 -12.294946 -13.576081 -14.968578 -16.479537 -18.116231 -19.886074 -21.796599 -23.855412 -26.070168 -28.448536 -30.998198 -33.726955 -36.643168 -39.757340 -43.087492 -46.676829 -50.671687 -55.318142 -58.100116 2.696679 2.616702 2.399350 2.101782 1.827403 1.585097 1.372901 1.187485 1.025717 0.884785 0.762181 0.655674 0.563283 0.483251 0.414025 0.354231 0.302659 0.258240 0.220039 0.187232 0.159097 0.135004 0.114402 0.096810 0.081810 0.069039 0.058181 0.048963 0.041148 0.034532 0.028940 0.024219 0.020240 0.016891 0.014077 0.011715 0.009735 0.008079 0.006695 0.005540 0.004578 0.003778 0.003113 0.002561 0.002104 0.001726 0.001414 0.001157 0.000945 0.000771 0.000628 0.000511 0.000415 0.000336 0.000272 0.000220 0.000178 0.000143 0.000115 0.000093 0.000074 0.000060 0.000048 0.000038 0.000030 0.000024 0.000019 0.000015 0.000012 0.000010 0.000008 0.000006 0.000005 0.000004 0.000003 0.000002 0.000002 0.000001 0.000001 0.000001 0.000000 0.000000 0.000000 -0.000000 -0.000000 -0.000000 -0.000001 -0.000001 -0.000001 -0.000001 -0.000002 -0.000002 -0.000003 -0.000004 -0.000005 -0.000006 -0.000008 -0.000010 -0.000012 -0.000015 -0.000019 -0.000024 -0.000030 -0.000037 -0.000046 -0.000057 -0.000070 -0.000087 -0.000108 -0.000133 -0.000164 -0.000201 -0.000247 -0.000303 -0.000371 -0.000454 -0.000554 -0.000675 -0.000822 -0.000999 -0.001212 -0.001469 -0.001778 -0.002148 -0.002592 -0.003122 -0.003756 -0.004512 -0.005412 -0.006481 -0.007751 -0.009256 -0.011037 -0.013141 -0.015623 -0.018546 -0.021984 -0.026020 -0.030753 -0.036292 -0.042766 -0.050321 -0.059123 -0.069362 -0.081254 -0.095044 -0.111011 -0.129469 -0.150773 -0.175324 -0.203571 -0.236020 -0.273238 -0.315857 -0.364585 -0.420209 -0.483605 -0.555743 -0.637699 -0.730660 -0.835937 -0.954970 -1.089342 -1.240786 -1.411197 -1.602642 -1.817372 -2.057828 -2.326657 -2.626721 -2.961103 -3.333123 -3.746340 -4.204566 -4.711870 -5.272584 -5.891309 -6.572919 -7.322560 -8.145648 -9.047874 -10.035190 -11.113806 -12.290179 -13.571000 -14.963172 -16.473798 -18.110152 -19.879651 -21.789825 -23.848283 -26.062671 -28.440628 -30.989744 -33.717502 -36.631223 -39.737986 -43.044354 -46.554724 -50.253879 -54.010234 -56.675588 -57.715615 2.652841 2.630486 2.530303 2.325251 2.074169 1.819132 1.583388 1.373168 1.188269 1.026576 0.885592 0.762905 0.656314 0.563845 0.483743 0.414454 0.354605 0.302984 0.258523 0.220285 0.187444 0.159281 0.135163 0.114539 0.096928 0.081912 0.069126 0.058256 0.049026 0.041202 0.034578 0.028979 0.024253 0.020269 0.016916 0.014097 0.011732 0.009750 0.008091 0.006705 0.005549 0.004585 0.003784 0.003118 0.002565 0.002108 0.001729 0.001417 0.001159 0.000947 0.000772 0.000629 0.000512 0.000416 0.000337 0.000273 0.000221 0.000178 0.000144 0.000116 0.000093 0.000075 0.000060 0.000048 0.000038 0.000030 0.000024 0.000019 0.000015 0.000012 0.000010 0.000008 0.000006 0.000005 0.000004 0.000003 0.000002 0.000002 0.000001 0.000001 0.000001 0.000000 0.000000 0.000000 -0.000000 -0.000000 -0.000000 -0.000001 -0.000001 -0.000001 -0.000001 -0.000002 -0.000002 -0.000003 -0.000004 -0.000005 -0.000006 -0.000008 -0.000010 -0.000012 -0.000015 -0.000019 -0.000024 -0.000030 -0.000037 -0.000046 -0.000057 -0.000071 -0.000087 -0.000108 -0.000133 -0.000164 -0.000202 -0.000248 -0.000304 -0.000372 -0.000454 -0.000555 -0.000676 -0.000823 -0.001000 -0.001214 -0.001471 -0.001780 -0.002151 -0.002596 -0.003127 -0.003762 -0.004518 -0.005419 -0.006491 -0.007762 -0.009269 -0.011052 -0.013158 -0.015643 -0.018569 -0.022011 -0.026052 -0.030789 -0.036335 -0.042816 -0.050378 -0.059188 -0.069437 -0.081340 -0.095143 -0.111125 -0.129599 -0.150921 -0.175492 -0.203762 -0.236237 -0.273483 -0.316135 -0.364899 -0.420563 -0.484003 -0.556190 -0.638200 -0.731221 -0.836564 -0.955669 -1.090120 -1.241650 -1.412156 -1.603704 -1.818544 -2.059121 -2.328081 -2.628285 -2.962819 -3.335001 -3.748392 -4.206804 -4.714305 -5.275229 -5.894178 -6.576022 -7.325910 -8.149258 -9.051756 -10.039356 -11.118267 -12.294946 -13.576081 -14.968578 -16.479537 -18.116230 -19.886073 -21.796593 -23.855395 -26.070113 -28.448356 -30.997611 -33.725042 -36.636938 -39.737041 -43.021331 -46.461777 -49.959921 -53.240558 -55.852571 -57.168089 -57.503726 -58.100116 -61.664381 -68.178465 -74.500730 -80.826401 -87.315288 -94.005266 -100.904572 -108.011547 -115.320712 -122.824560 -130.514073 -138.378862 -146.407202 -154.586040 -162.901003 -171.336433 -179.875432 -188.499927 -197.190767 -205.927845 -214.690240 -223.456395 -232.204308 -240.911746 -249.556469 -258.116448 -266.570074 -274.896342 -283.075000 -291.086667 -298.912914 -306.536332 -313.940616 -321.110703 -328.033001 -334.695753 -341.089522 -347.207723 -353.047100 -358.608130 -363.895878 -368.922638 -373.715254 -378.332150 -382.891676 -387.607614 -392.562177 -397.509944 -401.331095 -399.297799 -429.445506 -486.280329 -539.636748 -598.565187 -471.114335 -319.888177 -235.580041 -329.706501 -430.842577 -388.234685 -343.188249 -370.272947 -503.000345 -628.784617 -666.564213 252.965706 533.924636 -28.734095 -712.353037 -755.925724 -242.165699 -127.706575 -185.585543 245.146357 616.161548 1035.433513 1319.144100 1069.728181 55.958380 -766.733028 -409.270887 52.183357 837.229269 766.594668 -428.522218 -1011.546346 -2439.268207 -3422.202433 -4339.993278 -4920.596334 -4970.735344 -5866.524563 -7090.233249 -7304.955895 -7185.204708 -6701.951288 -5790.519408 -4493.947002 -2490.276516 -588.400808 -57.715615 -59.275163 -63.060662 -68.633057 -74.616901 -80.854134 -87.316725 -93.998920 -100.896037 -108.002566 -115.311859 -122.816050 -130.506014 -138.371330 -146.400262 -154.579752 -162.895428 -171.331629 -179.871452 -188.496821 -197.188579 -205.926613 -214.689994 -223.457155 -232.206085 -240.914541 -249.560273 -258.121241 -266.575829 -274.903024 -283.082570 -291.095082 -298.922127 -306.546293 -313.951270 -321.121984 -328.044826 -334.708019 -341.102097 -347.220455 -353.059825 -358.620674 -363.908012 -368.934034 -373.725247 -378.339642 -382.897728 -387.624430 -392.746902 -398.163731 -403.532185 -407.848967 -419.048790 -455.404151 -499.955414 -505.582573 -403.004921 -231.279679 -181.868166 -298.143100 -375.081410 -372.889099 -379.599585 -439.178587 -558.710021 -661.233626 -655.207228 -348.417583 52.891007 -0.909256 -263.843341 -306.763289 -423.394067 -454.968626 -364.809590 -252.348106 -17.162017 309.780530 515.962959 228.046368 -464.013684 -879.117822 -758.392231 -121.668968 558.753884 313.745743 -702.499883 -1582.621267 -2371.212610 -2808.038044 -3420.711769 -4257.111065 -4599.220029 -4785.895801 -5221.872213 -5447.268334 -5241.923868 -4692.593060 -4175.643196 -3462.061990 -1712.813157 296.686027 1446.471245 -57.503726 -58.071850 -60.064005 -63.930805 -68.981821 -74.742340 -80.900782 -87.338106 -94.012269 -100.906721 -108.012206 -115.320915 -122.824622 -130.514092 -138.378868 -146.407204 -154.586040 -162.901003 -171.336433 -179.875432 -188.499927 -197.190767 -205.927845 -214.690240 -223.456395 -232.204308 -240.911746 -249.556469 -258.116448 -266.570074 -274.896342 -283.075000 -291.086667 -298.912914 -306.536332 -313.940616 -321.110703 -328.033001 -334.695754 -341.089524 -347.207730 -353.047122 -358.608206 -363.896146 -368.923605 -373.718160 -378.340461 -382.916638 -387.684975 -392.958678 -398.795713 -405.228799 -413.630492 -428.049435 -452.971407 -476.502751 -466.000948 -399.404545 -308.750781 -282.118862 -324.483599 -366.957933 -387.484795 -412.430175 -465.282836 -536.660732 -569.577367 -496.567294 -318.623997 -134.524669 -149.281953 -300.218174 -434.415218 -555.749389 -617.814390 -622.483151 -601.497627 -483.286122 -327.593452 -278.032708 -460.913433 -752.218220 -881.220469 -724.138408 -367.418078 -125.897269 -327.037132 -902.656876 -1544.662813 -2052.528018 -2431.935341 -2909.695933 -3486.039188 -3786.386069 -3828.226216 -3912.646026 -3969.761455 -3817.702177 -3435.272850 -2923.812177 -2143.336355 -765.256622 844.582522 1975.607640 2431.218794 12781.026490 -2125.221664 4745.002099 15375.784196 -4397.219253 -903.339934 -1985.226338 1738.642669 13904.195203 -3694.332615 -4857.936403 9592.049516 6897.983887 -7817.541670 -49.655782 -3202.373693 -5382.349155 -4622.010990 -4939.990781 -2223.987622 26549.388223 877.245248 4153.575287 5357.795337 23528.759587 8314.580874 14490.622051 -1480.526999 -2834.732421 -408.189627 15331.590819 -3427.114086 -589.071944 8246.507044 17628.451076 -6608.034213 -6425.453427 3288.433189 7417.681284 2973.874912 10719.782691 -4188.899737 16876.885463 20687.026603 20510.533539 13908.139818 -18329.084398 27963.473317 13799.877449 11524.926205 18244.717087 -4773.194428 2529.814077 -7584.812465 13123.912565 341.855019 7890.901579 5684.894861 -1160.726897 -7068.968578 8321.215487 15885.941006 -4527.944306 14966.562998 4776.721017 13406.514944 23417.002612 1208.982201 18211.787680 -3275.796126 -3569.603159 17348.898340 34951.358666 8215.106559 -2542.593182 -3164.249120 3035.366504 -3223.729694 -943.795845 6449.601962 -7656.820494 9236.746773 -2995.344310 11559.402894 -1409.348203 17883.055125 -30027.392702 14964.550523 10768.051706 -4090.214336 7239.505215 3228.185590 13859.614386 -5078.128489 10569.431120 3453.919530 10220.777762 11516.221967 10985.356756 16712.547818 6367.351226 16552.664305 4748.432370 27801.634465 5994.009473 -1718.354669 3518.627269 -8584.308037 -4628.862673 15905.476091 11077.756724 14428.328805 -7713.817888 14885.708653 3443.279549 12350.528058 6108.139382 -430.785003 16037.474408 -7426.648981 10592.132910 12063.549227 7276.342650 5368.647337 17950.010448 10757.831062 7126.032123 3846.064760 9787.202748 -12612.927255 5741.796145 8856.418497 12773.363123 17838.416867 -32317.343941 -30254.208961 14289.518517 14951.507821 11253.021335 17502.354944 -28848.586437 11856.766612 -28007.619788 6256.924670 5038.457926 -4129.421042 10409.808964 7002.212770 4400.500826 7574.574102 26272.830610 13560.876201 14961.105638 -22701.559101 4532.171573 15079.656889 -21976.574856 24132.693622 14158.976400 1538.107844 5002.615820 1829.340505 2272.730320 -26301.600247 -23496.209418 12356.047251 7994.161360 -7226.378629 10602.513194 922.131528 -31997.745710 14880.325806 14558.567833 13622.630925 11101.351366 17523.357258 5392.265106 11187.491282 12509.408075 16500.128054 8608.455768 6640.541630 6382.717827 8913.081381 12264.479976 -18716.526233 -33124.306531 15705.297397 1743.024359 7333.665905 -21605.219672 -1891.699042 6386.769979 -18194.684156 4784.239940 -1766.113322 17735.993238 5952.218160 8480.363751 10492.241436 -2136.963436 15572.313214 -2141.495889 7535.651316 6352.488925 4533.415281 -4161.123294 3796.639214 2020.230491 -24326.914146 7303.558357 5503.447259 14104.508763 10985.328013 7316.364143 -21337.798305 7706.806602 3903.577912 12816.875804 7054.832793 8292.112314 -16515.909265 -23930.610884 9820.209111 9311.069012 5589.088038 4740.199333 8587.968124 8068.924045 9713.966076 8246.610627 -26323.985985 5947.848155 4995.082316 6265.029206 4950.380046 -3246.119268 4972.648633 6392.215130 8853.936180 -24204.316319 11516.255314 2254.766931 19330.970184 4247.407591 8316.705871 7681.539675 8391.522839 7353.158019 6489.218126 3146.589219 7800.470831 5441.607905 5406.068635 8709.164157 3511.182613 19178.639484 11989.980437 13579.829531 8207.322434 542.355387 5918.199833 8349.367389 5502.954600 8079.082493 6269.566226 9075.821680 7099.760490 4010.733987 7763.434440 8861.489241 5737.506421 7610.852534 10104.092876 4670.805988 4419.583044 8955.507928 11011.298919 3354.174501 14198.975126 2848.463751 10168.830254 7969.386170 9202.945598 11331.280977 5433.742553 11377.567973 5662.489551 6520.655148 3805.090271 5836.151571 8477.109139 6638.963070 9195.789386 6484.993930 8923.646852 12890.927960 8298.148816 10848.060785 11691.634974 4620.933290 8485.442149 4152.997177 -31551.308294 5401.242735 8043.521588 9757.030670 7538.113712 5992.004500 9488.371526 11170.473525 12033.959945 12989.302544 7587.350630 5823.439321 7757.620973 9537.880865 4652.063460 4372.862508 12077.873782 7384.203280 10032.977662 14096.182991 8681.444795 7120.445067 -1327.459623 7790.663508 7620.459493 10335.229432 8846.569441 13067.208691 11176.155776 13102.772219 9898.911603 9477.181109 12282.094728 3734.240824 723.925057 8161.126739 -1331.172561 9967.600373 6416.473313 6265.443229 7059.526629 6386.023256 4680.625260 13967.485880 12762.208580 12514.441900 9798.500147 8332.379074 11858.948079 5680.220420 14330.671975 11773.269425 12377.322536 6242.006401 13970.462531 11224.562069 -12496.072329 12004.651382 13721.340742 2783.987362 13751.505398 13562.612882 12783.776027 13208.141258 15226.123228 11632.142203 8529.704058 8803.599962 15094.024913 11679.589238 13556.814471 10546.991959 7355.004831 13388.558265 9533.607011 10794.727629 7940.527074 11377.876073 9041.403698 12100.722330 12536.100487 12377.137897 10165.025232 11023.383456 8623.051341 7576.121708 12019.564420 14202.636967 11471.023809 12122.707419 12559.953053 13550.169651 12349.195650 10714.412239 4205.081304 9448.979361 -1682.985284 10785.670223 7840.522705 13290.379014 10405.073367 8198.081248 13126.941927 14042.776566 9032.276201 9118.535581 10281.827694 12667.798201 8721.634543 13029.396928 10149.663299 13029.977366 13090.430890 14011.219598 14408.303021 11086.983873 4398.348384 13308.478979 9710.188856 12741.831896 6907.041768 7816.150756 9780.515641 11207.176826 10286.717391 11494.674199 9574.009974 10934.391528 13067.414101 9165.444460 14040.302687 12865.679471 14372.466375 12250.003668 11880.394718 9517.293049 -727.591042 8738.474465 7805.887450 8150.084893 7497.757063 8627.112678 8153.103298 8095.609854 10682.448134 6984.866990 8532.889223 13496.950427 8952.565940 10661.009187 15438.014289 11570.149826 13484.794951 13587.878392 12059.536949 9378.954983 14356.559108 10467.413838 8892.611520 9174.143786 6278.343349 8813.419371 7089.843392 9804.386970 11608.634478 12609.275689 8243.597707 10147.866740 9955.091797 14037.301652 11318.798106 13216.569833 14509.463966 5250.655274 14791.669266 10869.345794 5439.134125 10201.382897 13717.627246 8055.748092 8874.799404 12122.051152 8154.731859 12314.814161 9504.184140 10979.109148 11843.628990 11471.406521 10934.434515 13274.384291 13744.810922 15499.989626 14230.720211 13933.746544 14236.771677 5630.467672 11847.055319 8462.443643 10985.148973 11758.308807 11184.846402 9247.064200 12299.195288 10024.142730 12565.205310 9528.823807 13200.475494 13078.327332 10619.894268 15260.091438 13289.604217 11415.464606 10695.741927 13645.214951 10170.161174 10809.339258 11092.836987 15260.168905 11980.154884 8847.754515 11835.700194 7056.976576 9979.836906 10576.130766 7521.327195 11019.122375 14713.925592 12469.462849 9689.114359 11737.588267 13230.853951 11488.687990 12831.244259 15147.452192 12653.820690 6886.541115 3819.660218 8300.486086 6590.538990 8417.290752 8376.577740 7206.865131 7082.880995 9845.358076 10139.074227 13104.852631 11549.866349 12132.692558 9497.322999 9084.532435 12950.153713 14631.496701 14577.955847 13765.881107 14113.337952 7690.360394 12143.555419 6247.220731 6126.752966 4355.004565 9109.166925 11345.370781 9188.357814 9442.207409 9753.459360 6150.478388 13864.070497 8856.584365 12895.273777 14636.097686 14035.443746 13513.981209 13716.543555 14161.127173 15192.634022 13618.718989 14308.784510 243.024461 5461.967927 1853.093979 6338.390051 10072.086195 10610.091706 7130.720048 9148.640177 7673.809564 8255.644932 10482.666786 12110.177502 8112.138000 13129.331721 13519.747158 15406.605518 12419.616746 13325.475533 14821.534010 7529.381569 -782.817007 717.682067 721.075172 4856.226062 1426.658264 6626.897929 8327.866531 12251.145827 6373.058302 8331.661198 7355.533828 7612.885369 9896.947001 9285.593370 12145.693257 14699.448406 10142.822034 15191.409071 7297.486339 15027.100834 -9.097908 1464.702134 768.648009 -313.980613 9202.760249 4141.446554 7110.830820 7192.625331 6451.974680 8343.582636 5898.492304 8754.500305 7782.691410 12212.155675 9738.238372 15788.510755 11458.864892 15977.388195 11097.436802 13968.029908 -143.120978 -50.758415 1277.309873 1566.183873 1999.849078 4762.540178 5288.634239 7686.837664 6402.829310 7553.936164 5178.105654 8117.242354 14296.871781 8428.545646 9147.349029 11964.915831 10709.068308 10512.308196 11698.384674 10553.663023 545.196049 411.856333 3190.131878 198.639532 2121.149014 5844.531046 3279.665038 4973.883783 7089.922310 4789.592920 8274.894750 7915.389997 7382.759496 7338.930523 10497.474804 10221.874638 9813.342697 14437.837418 7737.260661 7930.676158 195.188374 40.004925 148.092342 477.189278 3819.193480 3892.660395 5484.657244 7443.295656 6302.618073 7584.699909 8511.667716 9404.342716 9286.168430 11075.678272 11218.119831 16120.566617 14582.803269 16119.823447 10335.686005 10664.437332 5002.513518 2490.827814 2108.581025 962.597140 1751.614470 1196.021396 1631.366003 4157.982200 3543.558446 4467.696355 9