<VTKFile type="PolyData">
<PolyData>
<Piece NumberOfPoints="6715" NumberOfVerts="6715" NumberOfLines="0" NumberOfStrips="0" NumberOfPolys="0">
<PointData>
<DataArray type="Float64" Name="Pressure" format="ascii">
 14232.381579 15188.240257 15149.417847 13700.945946 12117.900621 11438.960136 10354.732293 8045.561711 5937.310673 4357.154062 2845.105697 3027.926699 4250.030073 1692.349673 1293.923789 18203.655450 37388.548141 14814.729527 -7618.427974 -11198.811779 -1102.027835 7251.580577 8373.953844 6159.199848 5097.941044 7168.234729 9661.128316 9498.063772 9284.241672 9860.957019 10529.424327 10548.048325 10482.438678 10301.660706 10455.226283 10952.495675 11331.041437 11665.826675 11880.738579 12160.213294 12867.733811 13832.204661 15138.335884 15687.604593 15601.336930 14729.733136 14398.150890 14952.835811 14912.468075 14319.977356 13768.136810 13385.508130 13056.935641 13359.622645 14682.881651 16204.935763 16975.883828 16996.019898 16520.478171 16717.244142 16902.449388 16988.344831 17142.655361 17220.457159 17018.246302 16938.804190 17366.642438 18071.214290 18300.062589 18042.844900 17573.231658 17691.436968 18186.345840 19064.274874 19384.379817 19146.281538 19191.250277 19592.866257 20141.185286 20382.939511 20541.974487 20681.015950 20308.284068 19896.618889 19762.267845 19888.281457 20082.203665 20413.422145 20664.469076 20383.865574 20198.022981 20315.384768 20350.634756 20045.548233 19584.045039 19345.403036 19751.272784 20417.887618 20832.704957 20596.051636 20453.957471 20396.225118 20347.982638 20203.789789 19859.882999 19323.265637 18776.736074 18389.782160 17807.743474 17372.485216 17160.512362 17478.882891 17981.403228 18179.386508 18352.929445 18656.601257 18622.795630 18344.631377 18726.677844 19362.579819 19262.426539 18866.457189 18515.320256 18182.647524 18166.168425 18217.275445 18416.617696 18497.151717 18518.736341 18673.980738 18940.707949 18955.155350 18900.646258 19437.881021 19405.494332 19150.417041 19362.590506 19381.101601 19235.927752 19401.979136 19691.337189 19781.647384 19950.071985 20033.862581 19682.736238 19435.516006 19486.087475 19671.269290 19790.943353 19819.235215 19889.345206 20017.189113 20053.143415 19725.559752 19411.285237 19136.573596 18853.067647 18525.364911 18224.384325 18000.477840 17775.025256 17521.952957 17218.302508 17068.353001 17146.677106 17259.480934 17094.154771 16566.326778 16158.492435 16251.856514 16536.979527 16683.782016 16632.851201 16552.545751 16524.174884 16619.631304 16699.004473 16691.706965 16621.423306 16451.905906 16229.241650 16016.055546 15890.065162 15863.275159 16083.739259 16452.230002 16822.738913 16994.380037 16914.761465 16703.103215 16675.938690 16743.796374 16569.611491 16218.304233 15940.668550 16042.973890 16309.468346 16486.178099 16580.710778 16710.254809 16883.759695 13404.904194 13635.690937 14057.055829 13961.303546 12871.792936 11858.293748 11154.420499 9748.849496 7824.932861 6449.216959 5517.298500 4204.007362 2944.719139 2889.486816 2795.747925 2270.201419 3741.812108 7605.623636 6777.292970 1860.754797 416.881831 2007.611895 3207.779091 4076.292852 5079.513290 6480.348266 8219.324495 9272.420239 9425.709568 9666.457499 10185.433413 10432.501753 10255.246829 10054.566930 10097.724713 10463.538807 10999.298517 11351.120014 11589.630897 11840.332085 12082.490314 12645.377048 13659.289346 14628.597478 15118.433815 15050.322193 14440.620333 13960.390276 13787.665668 13650.639222 13459.414971 13203.139760 13017.044405 12993.745873 13333.330373 14211.571842 15310.503004 16096.501985 16328.539702 16314.137210 16468.977861 16744.700775 17014.066066 17169.421068 17119.100338 17005.910550 17016.103289 17368.569523 17917.912518 18157.969126 18146.318730 18093.865472 18018.707832 18200.944181 18797.993808 19222.004550 19237.255664 19240.981560 19496.275767 19778.449594 19892.409591 19963.785083 20041.710372 19902.188323 19649.012779 19577.427697 19626.159861 19741.078568 19971.250436 20121.575293 19982.977140 19780.876472 19764.548914 19728.703517 19513.234791 19305.276374 19283.213201 19534.427838 19930.642098 20294.487592 20380.732858 20265.416831 20147.190563 20013.383921 19783.644770 19459.232194 19052.605322 18688.569393 18401.022240 17912.520036 17415.954029 17399.619779 17821.936644 18014.670201 17946.644152 18061.579706 18318.126132 18354.751403 18256.925303 18449.873597 18863.262383 19075.035366 18905.300652 18618.912041 18404.524663 18210.977017 18188.713237 18342.274010 18414.892608 18444.781617 18678.046476 19022.771026 19085.688613 18985.915238 18878.741196 18724.103429 18711.082506 18996.869815 19292.890639 19340.945078 19410.349426 19652.038765 19864.226494 19942.766501 19905.367974 19670.579421 19441.935189 19407.884022 19518.463125 19640.692552 19700.677957 19743.205530 19799.591157 19705.951490 19495.777576 19291.305087 18997.094268 18697.231647 18458.459887 18251.688515 18109.317990 17919.414152 17595.976447 17326.869069 17267.935494 17299.235249 17250.023345 17039.335892 16711.422876 16454.570438 16468.897016 16727.454319 16909.174367 16841.853361 16723.980437 16715.729565 16728.836066 16729.446203 16720.265668 16644.705002 16532.710209 16435.234769 16314.035843 16191.658973 16191.217752 16403.768339 16742.626488 17040.544615 17168.571727 17194.592279 17188.219116 17138.123783 17055.334044 16842.428561 16574.773763 16422.843980 16492.788263 16671.210948 16817.733439 16917.745818 17010.200653 17113.007422 17212.437775 12947.573956 13115.581412 13313.408854 13350.812180 13009.047811 12162.871701 11220.599256 10278.518239 8983.168370 7491.053408 6290.096781 5309.168129 4175.424861 3087.323028 2851.128710 3676.975400 4283.941640 4138.984115 4721.115776 5008.449061 3663.021075 2047.661269 1105.445415 1050.724845 2430.734432 4884.608608 7238.624015 8781.166712 9368.350458 9434.159633 9532.092603 9735.257428 9831.694361 9786.148295 9773.750052 9975.064563 10369.683356 10809.523554 11182.226218 11458.934898 11700.759565 12008.986811 12554.522990 13363.882178 14122.727613 14536.376452 14528.122791 14242.306053 13887.902364 13576.950134 13350.131961 13178.849902 13051.427564 13018.929017 13132.783293 13472.148167 14105.806263 14891.686167 15570.763015 15958.840355 16171.191968 16368.867202 16634.350507 16927.231286 17140.925149 17203.862175 17206.837065 17278.054686 17516.370056 17879.662023 18142.292236 18228.635199 18206.389458 18132.793933 18256.809139 18610.291422 18931.367069 19070.032397 19149.780092 19310.259658 19477.417521 19581.690783 19648.617199 19660.710729 19571.185872 19434.422067 19386.353097 19432.661863 19525.330563 19638.429560 19704.707759 19640.110796 19506.913204 19415.815082 19338.833250 19236.584601 19171.630027 19240.564749 19451.082529 19736.513085 19998.243781 20142.557912 20103.109582 19960.337344 19764.378715 19513.028738 19219.784666 18901.327067 18666.024350 18529.189195 18307.527540 18054.918035 17975.306310 17993.283056 17936.438944 17859.005688 17918.419063 18065.836510 18144.315914 18193.285139 18363.153444 18641.484601 18827.602172 18782.092650 18571.165298 18352.909491 18225.712996 18227.068917 18318.031135 18407.142844 18501.105822 18741.018602 19042.054290 19223.797961 19319.469142 19280.370672 19169.023505 19141.295257 19229.957418 19328.421563 19370.441451 19454.681992 19621.005423 19777.521512 19825.631884 19740.649328 19567.637981 19411.647073 19370.914947 19422.696260 19496.719377 19552.684176 19581.993379 19572.166016 19485.691033 19330.400139 19128.574368 18884.212988 18629.796517 18405.009514 18225.884574 18086.790045 17922.935576 17701.435540 17525.214890 17442.473983 17380.803841 17255.491136 17041.188523 16789.139061 16625.191568 16633.754341 16790.487402 16925.511118 16910.218539 16826.304820 16776.713772 16759.647393 16744.809975 16714.251192 16646.593560 16560.224941 16496.442885 16444.169412 16396.579003 16430.951978 16592.924038 16836.819795 17056.403138 17184.268787 17260.270045 17308.616047 17280.816696 17164.861258 16995.228870 16831.923314 16762.152090 16797.321713 16888.015977 16985.133398 17066.177570 17139.575339 17219.441647 17291.752015 17327.774668 16883.759695 16484.264327 16041.416260 15703.409039 15340.936925 14874.681502 14231.155637 13593.211018 13037.176259 12482.847834 11751.481629 10887.062810 10110.036488 9331.264327 8635.346534 7987.973601 7401.204208 6809.426405 6873.046884 7082.727284 6935.786464 6492.266652 5984.367668 5478.895014 4946.183369 4470.584096 4068.525109 3720.519222 3415.048350 3144.289711 2903.032601 2687.332210 2493.952923 2320.070335 2163.134152 2020.829443 1891.081520 1772.068192 1662.223475 1560.229053 1464.995605 1375.637936 1291.447502 1211.864890 1136.453798 1064.877321 996.876906 932.254106 870.855078 812.557709 757.261198 704.877846 655.326820 608.529614 564.406940 522.876787 483.853406 447.247006 412.963961 380.907375 350.977866 323.074467 297.095551 272.939736 250.506714 229.697990 210.417500 192.572125 176.072080 160.831211 146.767181 133.801586 121.859992 110.871918 100.770775 91.493761 82.981745 75.179116 68.033636 61.496279 55.521070 50.064925 45.087494 40.551013 36.420158 32.661901 29.245383 26.141784 23.324203 20.767541 18.448393 16.344935 14.436818 12.705044 11.131784 9.700003 8.392408 7.188270 6.048439 4.934476 4.347847 17212.437775 17019.361970 16678.618000 16283.880299 15925.494834 15533.308318 15033.730045 14441.356685 13816.237551 13200.344085 12540.167763 11793.945636 11009.454449 10256.927225 9531.231170 8859.213007 8248.604248 7718.680629 7298.798847 7104.028674 6986.056214 6756.857567 6391.512691 5939.105879 5423.422872 4914.118946 4459.540551 4063.816623 3718.077310 3413.371664 3142.955353 2901.900898 2686.348555 2493.093403 2319.322461 2162.488079 2020.274971 1890.607681 1771.663702 1661.877347 1559.931098 1464.736730 1375.410266 1291.244386 1211.680840 1136.284387 1064.719062 996.727134 932.110850 870.716947 812.423782 757.130920 704.750944 655.203222 608.409388 564.290239 522.763806 483.744353 447.142076 412.863320 380.811153 350.886149 322.987298 297.012929 272.861621 250.433033 229.628639 210.352351 192.511031 176.014882 160.777737 146.717257 133.755034 121.816634 110.831580 100.733286 91.458956 82.949464 75.149208 68.005956 61.470689 55.497439 50.043128 45.067415 40.532542 36.403189 32.646337 29.231131 26.128757 23.312319 20.756724 18.438573 16.336052 14.428833 12.697977 11.125841 9.695991 8.393155 7.203437 6.117667 5.148327 4.505433 4.238777 17327.774668 17261.994164 17077.828775 16775.688973 16424.573367 16050.791887 15626.780745 15121.142763 14537.623770 13906.408895 13251.083743 12559.483580 11822.468958 11068.265041 10333.156528 9631.968366 8976.074680 8382.022604 7869.379381 7467.555968 7189.444434 6959.390613 6675.918663 6300.295794 5853.384655 5370.946171 4894.035089 4454.271039 4063.529952 3719.167857 3414.660642 3144.173224 2902.997671 2687.322407 2493.950240 2320.069567 2163.133930 2020.829382 1891.081504 1772.068188 1662.223474 1560.229052 1464.995605 1375.637936 1291.447502 1211.864890 1136.453798 1064.877321 996.876906 932.254106 870.855078 812.557709 757.261198 704.877846 655.326820 608.529614 564.406940 522.876787 483.853406 447.247006 412.963961 380.907375 350.977866 323.074467 297.095551 272.939736 250.506714 229.697990 210.417500 192.572125 176.072080 160.831211 146.767181 133.801586 121.859992 110.871918 100.770775 91.493761 82.981745 75.179116 68.033636 61.496279 55.521070 50.064925 45.087494 40.551013 36.420158 32.661901 29.245383 26.141784 23.324203 20.767544 18.448402 16.344965 14.436918 12.705372 11.132859 9.703521 8.403929 7.225849 6.174232 5.285226 4.620395 4.278657 4.179086 4.347847 3.986368 3.415940 2.964374 2.587384 2.260473 1.973904 1.721968 1.500448 1.305832 1.135049 0.985369 0.854354 0.739829 0.639850 0.552684 0.476791 0.410799 0.353494 0.303798 0.260757 0.223530 0.191375 0.163637 0.139741 0.119182 0.101519 0.086362 0.073375 0.062261 0.052762 0.044656 0.037746 0.031864 0.026865 0.022620 0.019022 0.015975 0.013399 0.011224 0.009389 0.007845 0.006545 0.005454 0.004539 0.003773 0.003131 0.002596 0.002149 0.001777 0.001467 0.001209 0.000996 0.000819 0.000673 0.000552 0.000452 0.000370 0.000302 0.000246 0.000201 0.000163 0.000133 0.000108 0.000087 0.000071 0.000057 0.000046 0.000037 0.000030 0.000024 0.000019 0.000015 0.000012 0.000010 0.000008 0.000006 0.000004 0.000003 0.000002 0.000001 0.000001 -0.000000 -0.000001 -0.000002 -0.000002 -0.000003 -0.000004 -0.000006 -0.000007 -0.000009 -0.000012 -0.000015 -0.000018 -0.000022 -0.000028 -0.000034 -0.000042 -0.000052 -0.000064 -0.000079 -0.000097 -0.000118 -0.000145 -0.000177 -0.000216 -0.000263 -0.000319 -0.000388 -0.000470 -0.000569 -0.000689 -0.000832 -0.001003 -0.001208 -0.001453 -0.001745 -0.002093 -0.002508 -0.003000 -0.003583 -0.004275 -0.005093 -0.006059 -0.007199 -0.008541 -0.010120 -0.011974 -0.014149 -0.016696 -0.019674 -0.023152 -0.027208 -0.031930 -0.037421 -0.043797 -0.051188 -0.059745 -0.069638 -0.081057 -0.094221 -0.109372 -0.126786 -0.146772 -0.169676 -0.195887 -0.225838 -0.260012 -0.298949 -0.343246 -0.393569 -0.450654 -0.515313 -0.588444 -0.671035 -0.764173 -0.869049 -0.986967 -1.119355 -1.267765 -1.433891 -1.619569 -1.826792 -2.057713 -2.314658 -2.600130 -2.916820 -3.267610 -3.655587 -4.084043 -4.556483 -5.076629 -5.648426 -6.276041 -6.963867 -7.716519 -8.538839 -9.435884 -10.412926 -11.475443 -12.629106 -13.879769 -15.233457 -16.696339 -18.274719 -19.975002 -21.803675 -23.767274 -25.872352 -28.125447 -30.533047 -33.101560 -35.837322 -38.746703 -41.836565 -45.115869 -48.601140 -52.334378 -56.462274 -61.229101 -64.068815 4.238777 4.119618 3.798360 3.356991 2.946602 2.580786 2.257334 1.971932 1.720462 1.499187 1.304737 1.134086 0.984519 0.853604 0.739167 0.639267 0.552171 0.476340 0.410404 0.353148 0.303495 0.260493 0.223300 0.191174 0.163462 0.139589 0.119051 0.101405 0.086264 0.073290 0.062187 0.052699 0.044601 0.037699 0.031824 0.026830 0.022591 0.018997 0.015954 0.013381 0.011208 0.009376 0.007833 0.006536 0.005446 0.004532 0.003767 0.003127 0.002592 0.002145 0.001774 0.001464 0.001207 0.000994 0.000818 0.000672 0.000551 0.000451 0.000369 0.000301 0.000246 0.000200 0.000163 0.000132 0.000107 0.000087 0.000070 0.000057 0.000046 0.000037 0.000030 0.000024 0.000019 0.000015 0.000012 0.000010 0.000008 0.000006 0.000004 0.000003 0.000002 0.000001 0.000001 -0.000000 -0.000001 -0.000002 -0.000002 -0.000003 -0.000004 -0.000006 -0.000007 -0.000009 -0.000012 -0.000015 -0.000018 -0.000022 -0.000028 -0.000034 -0.000042 -0.000052 -0.000064 -0.000079 -0.000097 -0.000118 -0.000145 -0.000177 -0.000215 -0.000262 -0.000319 -0.000387 -0.000469 -0.000568 -0.000687 -0.000830 -0.001001 -0.001206 -0.001451 -0.001743 -0.002090 -0.002504 -0.002996 -0.003579 -0.004269 -0.005086 -0.006051 -0.007190 -0.008530 -0.010107 -0.011960 -0.014132 -0.016676 -0.019652 -0.023126 -0.027178 -0.031896 -0.037381 -0.043751 -0.051135 -0.059685 -0.069568 -0.080978 -0.094130 -0.109269 -0.126669 -0.146639 -0.169526 -0.195717 -0.225645 -0.259795 -0.298705 -0.342972 -0.393262 -0.450309 -0.514927 -0.588013 -0.670555 -0.763638 -0.868455 -0.986308 -1.118625 -1.266958 -1.433000 -1.618587 -1.825712 -2.056528 -2.313358 -2.598708 -2.915265 -3.265915 -3.653742 -4.082038 -4.554308 -5.074274 -5.645881 -6.273295 -6.960910 -7.713341 -8.535430 -9.432235 -10.409027 -11.471284 -12.624679 -13.875068 -15.228473 -16.691067 -18.269154 -19.969140 -21.797514 -23.760812 -25.865590 -28.118382 -30.525670 -33.093834 -35.829112 -38.737554 -41.824965 -45.096834 -48.558066 -52.211313 -56.039237 -59.906511 -62.643988 -63.716143 4.179086 4.145073 3.995609 3.691008 3.316880 2.934520 2.578246 2.257683 1.973052 1.721707 1.500369 1.305808 1.135042 0.985367 0.854354 0.739829 0.639849 0.552684 0.476791 0.410799 0.353494 0.303798 0.260757 0.223530 0.191375 0.163637 0.139741 0.119182 0.101519 0.086362 0.073375 0.062261 0.052762 0.044656 0.037746 0.031864 0.026865 0.022620 0.019022 0.015975 0.013399 0.011224 0.009389 0.007845 0.006545 0.005454 0.004539 0.003773 0.003131 0.002596 0.002149 0.001777 0.001467 0.001209 0.000996 0.000819 0.000673 0.000552 0.000452 0.000370 0.000302 0.000246 0.000201 0.000163 0.000133 0.000108 0.000087 0.000071 0.000057 0.000046 0.000037 0.000030 0.000024 0.000019 0.000015 0.000012 0.000010 0.000008 0.000006 0.000004 0.000003 0.000002 0.000001 0.000001 -0.000000 -0.000001 -0.000002 -0.000002 -0.000003 -0.000004 -0.000006 -0.000007 -0.000009 -0.000012 -0.000015 -0.000018 -0.000022 -0.000028 -0.000034 -0.000042 -0.000052 -0.000064 -0.000079 -0.000097 -0.000118 -0.000145 -0.000177 -0.000216 -0.000263 -0.000319 -0.000388 -0.000470 -0.000569 -0.000689 -0.000832 -0.001003 -0.001208 -0.001453 -0.001745 -0.002093 -0.002508 -0.003000 -0.003583 -0.004275 -0.005093 -0.006059 -0.007199 -0.008541 -0.010120 -0.011974 -0.014149 -0.016696 -0.019674 -0.023152 -0.027208 -0.031930 -0.037421 -0.043797 -0.051188 -0.059745 -0.069638 -0.081057 -0.094221 -0.109372 -0.126786 -0.146772 -0.169676 -0.195887 -0.225838 -0.260012 -0.298949 -0.343246 -0.393569 -0.450654 -0.515313 -0.588444 -0.671035 -0.764173 -0.869049 -0.986967 -1.119355 -1.267765 -1.433891 -1.619569 -1.826792 -2.057713 -2.314658 -2.600130 -2.916820 -3.267610 -3.655587 -4.084043 -4.556483 -5.076629 -5.648426 -6.276041 -6.963867 -7.716519 -8.538839 -9.435884 -10.412926 -11.475443 -12.629106 -13.879769 -15.233457 -16.696339 -18.274719 -19.975002 -21.803674 -23.767272 -25.872347 -28.125430 -30.532991 -33.101377 -35.836726 -38.744763 -41.830244 -45.095278 -48.534039 -52.116310 -55.740489 -59.126034 -61.815753 -63.172771 -63.521771 -64.068815 -67.625860 -74.104833 -80.365737 -86.605777 -92.983488 -99.535433 -106.268596 -113.180223 -120.263950 -127.511633 -134.913907 -142.460360 -150.139604 -157.939313 -165.846265 -173.846399 -181.924871 -190.066139 -198.254045 -206.471921 -214.702706 -222.929065 -231.133523 -239.298594 -247.406901 -255.441286 -263.384883 -271.221173 -278.934016 -286.507716 -293.927188 -301.178373 -308.249094 -315.130555 -321.819626 -328.321835 -334.654520 -340.848774 -346.947714 -352.997376 -359.026207 -365.011355 -370.837377 -376.269067 -380.988818 -384.759480 -387.723403 -390.595895 -397.226834 -418.796859 -486.074856 -584.094210 -631.802944 -527.316612 -278.183927 -73.989246 -31.318527 -218.390920 -390.686158 -486.164818 -522.722838 -593.708902 -710.481874 -873.221465 -1165.938230 -1498.775650 -1207.895506 -410.848759 117.135347 -410.690567 -1111.944561 -1094.744559 -881.911509 -417.791921 -253.664477 -290.126943 -632.589557 -915.121521 -1202.927701 -1540.114723 -1516.298939 -1552.431322 -1158.249415 -867.501030 -745.111638 -517.163501 615.607869 1817.287899 2824.484878 4365.058322 5037.403174 6102.738661 7989.308817 10325.619361 12791.259779 14077.680815 14767.847576 14969.593809 14835.492565 14232.381579 -63.716143 -65.264803 -69.029446 -74.561604 -80.483402 -86.634796 -92.986192 -99.530385 -106.261402 -113.172622 -120.256506 -127.504548 -134.907275 -142.454241 -150.134044 -157.934354 -165.841947 -173.842757 -181.921939 -190.063944 -198.252611 -206.471267 -214.702844 -222.930002 -231.135260 -239.301125 -247.410218 -255.445374 -263.389727 -271.226755 -278.940318 -286.514713 -293.934836 -301.186593 -308.257741 -315.139379 -321.828234 -328.329680 -334.660940 -340.853151 -346.949804 -352.997851 -359.027341 -365.017592 -370.855058 -376.303874 -381.039063 -384.814208 -387.796206 -390.876653 -396.982370 -414.394814 -457.613781 -527.877908 -579.255719 -519.741177 -304.255594 -80.748275 -65.281827 -245.414198 -405.503339 -472.135432 -512.317806 -600.339873 -737.222845 -925.502540 -1181.375442 -1414.039492 -1442.673612 -1117.354257 -857.595533 -991.028679 -1064.130136 -929.724252 -636.616737 -369.084807 -329.246733 -488.351116 -709.816718 -928.202429 -1191.643795 -1447.000036 -1562.223046 -1488.267852 -1284.534661 -1012.246660 -813.888614 -427.580224 707.668247 2088.283763 3604.007232 5264.985536 6274.723654 7490.981054 9252.619482 11117.368591 12990.182951 14567.325552 15385.098216 15383.063038 14772.579225 13949.314374 13404.904194 -63.521771 -64.084034 -66.061650 -69.902002 -74.910561 -80.608142 -86.680411 -93.006387 -99.542462 -106.270753 -113.180886 -120.264154 -127.511696 -134.913926 -142.460366 -150.139606 -157.939313 -165.846265 -173.846399 -181.924871 -190.066139 -198.254045 -206.471921 -214.702706 -222.929065 -231.133523 -239.298594 -247.406901 -255.441286 -263.384883 -271.221173 -278.934016 -286.507716 -293.927188 -301.178373 -308.249094 -315.130555 -321.819626 -328.321836 -334.654523 -340.848784 -346.947746 -352.997466 -359.026449 -365.012048 -370.839188 -376.272920 -380.995547 -384.782231 -387.861753 -391.316738 -397.794093 -413.382878 -446.402295 -494.337584 -523.649388 -479.422673 -346.018614 -213.759714 -198.809937 -291.413776 -393.304953 -454.320734 -508.839783 -603.580183 -751.549262 -946.319531 -1170.754344 -1348.105051 -1374.063520 -1241.337384 -1104.782480 -1054.171027 -988.420069 -812.512610 -561.446134 -366.664250 -331.868545 -463.349746 -678.202759 -922.057786 -1162.091390 -1348.654442 -1424.944872 -1352.445209 -1181.398977 -949.860744 -683.285063 -133.574076 910.966089 2257.763068 3774.219722 5304.968344 6575.219215 7970.874570 9618.516617 11334.172668 13036.014129 14486.268916 15326.082133 15407.870068 14860.145831 13982.147544 13267.839070 12947.573956 8982.404480 3673.776397 7008.683201 6517.862538 3714.210385 -730.440991 6119.450656 4389.624557 6505.043263 1719.471726 5785.396482 4033.381293 3272.953994 7177.149761 10604.932722 4364.257221 11298.948600 14979.446972 14204.182492 15043.176023 6723.189079 -851.203151 4306.476064 6730.617959 7193.227589 2604.109936 5992.782075 -829.025556 5711.418962 8535.225014 6328.155108 6033.882773 7768.486637 5009.038225 7156.633506 13895.497696 6926.531264 7643.963611 11813.331855 12464.668806 4352.496937 2027.061007 7290.271429 7064.777608 3982.883649 10358.212313 -26268.978421 3948.235938 9714.991248 6364.198987 8795.458058 3536.952735 -18570.577880 11580.691854 8553.874361 14635.569742 9794.357380 10462.913421 15089.287012 13118.699605 1212.981928 4153.429277 9440.897646 5576.804358 7613.627920 3561.113474 5781.323289 5460.309398 7086.146364 8053.440571 14685.437284 6937.076767 5627.495183 6022.772378 8836.805412 10327.252714 11007.146975 15561.108482 12639.203112 11809.965864 -185.279781 -16325.444284 8350.558235 6014.623230 -5939.641850 9357.578756 22766.419439 -10726.896925 5672.821148 2552.565888 9905.330207 6673.005296 4326.304184 3430.165876 5052.968076 11892.289831 7542.750365 -3474.076920 10773.569077 10663.901552 5701.192061 10353.490462 -19813.518061 3466.668346 7108.757623 7546.523390 9175.409731 15314.085960 5729.479700 3735.463778 4285.169283 7329.188510 12783.692438 1539.143676 2110.018649 10339.002308 5239.717177 6328.307356 6552.309020 8164.286883 -24847.318050 6848.341180 7304.591832 7938.099188 9398.097267 7962.044512 10372.598279 3638.723453 -3484.170872 -1278.719031 3569.946444 4678.315015 7174.596324 7149.864834 -21375.136102 33761.890594 3924.607051 10484.913315 9462.906122 9114.675564 -16625.351248 -22407.537879 61541.528181 8626.571727 7843.516719 8080.316397 -8357.932234 10162.305674 9193.243048 1025.008431 4951.192803 1116.673205 8223.279131 61182.176370 2851.379143 10526.715235 36157.051678 4527.511215 1714.146213 7459.649624 7978.599961 7604.892018 8165.390853 51172.106017 -19822.138635 3292.672248 9024.322519 19060.195353 2503.731477 3250.996564 -2307.599475 2476.654567 2490.701866 4792.311807 10305.856537 -1830.192092 5321.278285 7978.967886 10360.675145 10712.938811 -13438.615789 9759.209060 6605.128703 11126.240051 7115.250769 -22512.356511 8389.093961 -26905.987620 7964.971783 10450.609266 -15076.379240 6158.435470 11058.212009 15525.750985 6769.913454 -4165.608099 -15971.543296 -2355.723670 10564.601700 2155.785652 10255.445980 8987.173571 12737.309709 8085.153957 7007.530530 7297.692833 8343.204558 8461.507301 9088.546286 -19744.506190 9934.465787 10791.551842 10557.844705 13302.857777 9756.526485 52506.574570 9285.812831 8821.718071 6774.075803 10632.149902 8692.112739 24777.135151 60470.435773 10813.380177 3747.724261 6106.606259 9879.797671 7128.710549 9346.249141 11516.945158 10618.426529 -17318.907349 7121.914327 6950.536488 9338.594354 9463.457441 9652.892007 5000.259076 10057.537631 -11213.286531 56353.347217 12118.647921 7386.936371 6339.895431 9503.500553 -18344.959927 10748.888082 10557.289776 10233.685257 8154.937331 7512.460430 8585.743323 7780.997133 8404.984844 10137.036688 8034.650276 -14464.459643 13359.293245 13824.535635 10115.982547 7402.661402 6836.110238 8508.162210 11242.362835 4199.243514 8207.727307 11497.009264 7766.851318 8144.157205 10427.523577 4481.819679 9390.048549 9931.007157 11531.249321 5077.710043 9862.619808 11248.964481 12265.652969 -4596.947247 4719.986021 8087.654779 10820.615219 8270.123514 9405.512974 11424.534776 6442.053136 13359.501574 7101.369560 8950.142264 6819.584209 8566.763815 8223.098582 7736.314633 11004.339700 6928.519526 10651.572376 13214.415499 10033.302122 11966.151342 13649.841400 7338.042671 10044.662599 8356.712800 -24559.095176 8245.904149 8200.734491 10384.155847 8048.148995 8848.045951 9566.199896 11337.179551 12313.736641 -18017.063926 7893.015835 7447.729455 8202.534551 11283.876985 8458.210059 7926.222789 14238.217960 7410.955240 10659.603469 15657.937127 8972.307969 8670.104893 8841.625175 8113.296700 7893.335319 11790.463347 9185.692634 14057.990409 12731.012696 13463.372933 10511.309093 9517.114484 14063.903328 9708.751186 -117.441827 25977.912670 -12285.231371 10672.831439 10066.442437 6377.261706 7416.969449 7171.102759 7846.375060 14334.749157 13833.904107 13945.786066 10826.002800 8711.962016 12255.914998 8301.411846 14885.973324 11890.037699 12720.902657 8088.894285 16077.655781 11996.388315 1124.028221 13142.243549 14006.230835 8810.602029 13264.116118 13838.983198 15568.211258 14784.777350 15195.598396 11838.452713 9367.735814 9750.402168 15226.539255 11443.851084 13772.523329 12341.064014 10365.690394 14525.785271 11239.444039 12410.676058 8707.381610 12701.051201 8826.275057 12712.665287 13831.272576 12697.305222 10485.006030 13064.989829 9256.662010 7403.001571 14077.614136 17415.700534 15573.288043 14689.358245 13149.050313 13522.956698 13385.370389 12682.686636 9800.140403 20818.943839 9730.391443 11375.542821 8921.684926 14217.128723 10952.668535 8568.432111 14117.010010 14850.250400 10047.072406 10180.823046 12352.364949 13988.483420 9928.046686 15200.211778 10232.994148 15904.526197 13633.738128 15256.838140 14917.796558 12979.405090 8558.979033 15095.026170 10577.804045 12786.894739 8112.029541 7249.990170 10746.884716 13188.695674 11844.730643 13382.067136 10458.095368 12896.821114 14119.330022 11356.388047 16204.576260 14538.221447 15089.709734 14671.918067 11613.308774 11309.964661 9399.810206 13711.219056 8538.731392 8933.788060 8346.172181 9251.147253 9149.857494 8329.173714 15048.044701 6576.262940 9216.905883 15355.075407 10457.666396 14944.874567 15720.566558 14200.760546 14384.338333 16043.858691 12751.792113 4202.082688 15072.854275 14841.845000 11613.114147 11025.319335 8468.395218 12514.281742 6999.634716 12050.027432 14828.372674 17027.747598 9716.391011 12266.405208 11859.098767 15516.884287 15484.128847 15932.812353 15126.393978 9411.415625 16498.595478 11076.160090 8396.386342 11872.864609 17593.214271 11945.670953 11684.038925 16707.125203 9569.619729 16835.665957 12752.656064 14225.234586 15921.229006 15746.860041 13825.429506 16240.078191 15885.908123 15434.383339 13669.468375 14284.888868 15854.827656 9499.604901 14416.990509 10851.461321 15846.498256 15716.028334 15499.371118 14207.035020 16663.582837 13896.443374 17590.243251 12893.114816 17560.787802 17138.590717 16238.721843 15467.993325 17208.290526 15055.521142 12673.502073 17543.594122 11388.411753 11391.308186 12711.636358 17557.387959 17667.339943 10877.916763 15899.858122 9557.397167 14963.556212 15104.772271 11147.583891 16820.372651 16799.050235 17864.788542 14712.271940 15929.672338 17632.971571 12490.525952 14676.488973 17246.863528 12842.136231 9956.031602 9470.527754 12337.401052 10409.091320 12570.614966 12600.927179 10213.311502 11028.049807 14535.482853 15072.066208 18337.325727 17361.634182 16864.960931 14674.222127 13677.741065 18322.390488 17936.050335 14377.146468 15850.068583 17017.703663 10325.696187 13579.218390 9366.819062 9306.693329 6852.025292 14096.215037 15368.217897 13872.561670 13589.737852 13606.391642 9674.930719 18916.583374 12459.301021 17342.747427 17674.814825 16679.552760 17637.162434 17440.215480 17326.469125 15242.106102 17220.775570 15384.269260 1310.310433 9050.193306 4404.699759 10183.380133 14222.630842 14832.548829 11423.355317 13430.789173 11676.588414 12777.991183 14733.899073 17274.370664 12212.325957 14889.168106 14320.096083 17329.037918 16892.003026 13602.717946 14092.316364 10587.946643 1163.137771 2758.485348 2638.105517 7622.513997 4098.843075 10559.826316 12598.364083 16381.127761 9422.303574 12537.594998 11689.233146 11542.159215 15377.942724 14336.904757 18225.680129 17497.480248 15207.009559 16710.084273 10455.297702 14229.257117 1467.121610 2613.996235 2959.729537 802.444235 13330.760797 7091.231651 11318.678919 10244.361369 10258.592162 12062.312870 8647.347053 12605.089935 11804.232170 18764.387184 14349.586330 15946.032988 15828.398114 14591.174380 12431.084041 15396.709648 1717.380940 704.079556 2128.849508 2465.154097 3740.680063 7631.264098 8731.379422 10202.869791 10695.892707 11234.827449 8543.561613 13005.523076 17970.104698 12326.934725 15116.179823 17965.691254 16345.999782 13943.569101 12758.517697 13189.214984 1788.234023 2612.556813 5916.526501 1309.310163 4139.133066 9460.651649 6836.351670 7810.644078 10360.798525 8105.448897 12089.612277 12684.034569 11123.335294 11661.472950 15824.282694 15299.400920 15036.278830 15245.886167 10636.319246 10493.168650 624.874793 1251.661682 1799.565090 2562.646294 6430.724186 5871.402637 8450.488125 11337.022344 10352.374573 11468.403747 12907.778094 15114.546931 13252.060180 17409.343098 17215.387257 16989.072926 14195.718356 16283.202579 16071.845633 