<VTKFile type="PolyData">
<PolyData>
<Piece NumberOfPoints="6715" NumberOfVerts="6715" NumberOfLines="0" NumberOfStrips="0" NumberOfPolys="0">
<PointData>
<DataArray type="Float64" Name="Pressure" format="ascii">
 13297.804000 14357.721055 14664.544042 14052.521567 13083.574098 12098.431464 11451.169416 11395.109641 11735.329389 11724.493365 10751.075718 10164.807431 11211.018634 10460.104115 2607.159504 -4230.558310 -2719.043864 3310.516481 -4065.250922 -17789.156261 -18862.375440 -4283.782729 13097.022313 16156.135249 14879.716335 14361.834753 14644.690264 15319.626962 16163.464060 17244.059459 17564.233301 16607.767364 15377.062959 14409.765004 14427.263574 14840.250578 15271.716010 15841.103506 16761.342581 17966.389801 18960.332505 19193.072967 18713.803929 18467.253111 18908.535961 19667.768095 19947.694014 19965.418597 20252.966266 21164.995209 22157.644529 22422.919745 21850.503929 21694.759487 22330.666515 22797.581604 22714.667683 22368.310651 22287.250308 22343.456133 22799.455863 23514.934612 24104.200548 23991.977980 23746.650057 24249.714744 25153.449310 26053.744764 26719.100817 27290.286591 27727.845542 27915.142855 27558.756415 26704.029503 25525.757434 24866.432105 25094.402635 26318.963910 27579.233354 28601.564679 29069.103622 29173.612007 28967.633324 28424.380307 27932.695616 27820.454544 28136.706799 28499.057161 28396.585552 27857.173075 28095.076928 28717.310083 28550.990547 27760.105458 27351.027732 27599.061899 28093.876720 28433.194613 28265.309529 27767.742932 27204.770005 27289.143400 27658.116946 27910.513546 27894.393124 27612.184164 26907.775063 26052.281882 25082.180837 24317.538032 24091.757418 24097.735686 24325.609950 24201.955889 23251.135990 22052.342681 21148.158090 20916.199399 21024.265474 21003.881940 20756.030086 20542.422745 20343.052063 20210.269680 20113.770444 19937.067104 19495.816390 18992.755449 18666.367241 18630.326336 18653.525791 18470.188853 18141.942715 17980.160425 18033.699322 17980.152825 17653.766119 17321.143285 17143.808108 17199.526113 17216.541478 17048.477428 16918.705449 16709.686096 16622.788818 16478.655414 16208.844418 15908.364620 15662.917175 15369.576336 15105.025842 14872.670522 14806.336312 14898.656182 14941.282613 14911.151784 14740.584387 14654.028756 14720.724674 14946.278905 15095.276208 15207.435897 15244.487443 15251.863304 15182.601555 15040.281628 14922.713451 15004.520559 15270.096344 15746.874790 15930.750509 15963.651593 16250.271186 16508.510500 16698.649964 16691.395589 16587.302849 16566.644897 16606.159680 16809.818713 17058.428336 17364.425537 17661.423682 17702.843885 17588.496735 17498.854308 17526.243144 17683.469688 17871.857143 18140.788702 18664.713694 19265.834562 19766.917173 19902.310456 19636.960428 19073.018914 18411.818759 18085.850965 18065.035679 18282.176788 18592.272277 10826.456035 12105.296822 13138.360837 13495.621912 13252.494208 12677.425010 12045.792608 11460.161039 11094.190436 11093.387276 11110.112715 10491.105368 9564.041495 9637.659473 10254.760868 6813.955951 2357.629199 2375.576089 4543.787547 1160.157762 -4889.001509 -4313.720229 4303.527213 12105.952807 13757.591824 13901.677499 14179.843211 14495.921853 14547.227851 14675.994596 15142.143861 15336.836854 14884.279701 14062.112761 13629.671949 13834.899393 14353.125732 15096.692195 15882.652811 16836.103446 17997.124745 18936.000645 19269.884563 19082.323100 19003.488813 19304.801780 19704.845772 19869.704214 19792.220145 19987.184036 20624.803740 21350.250156 21525.955696 21080.567615 20969.775272 21330.716256 21703.025168 21911.963038 22015.750491 22033.354315 22224.469047 22790.553378 23758.203292 24615.001618 24856.178301 24766.136035 25012.428365 25668.472476 26510.362748 27315.467598 27966.859504 28445.138957 28667.111289 28466.238511 27830.913796 26955.603438 26290.866997 26312.535489 27126.705541 28196.417461 29012.098930 29500.246031 29620.098351 29379.002923 28903.735498 28618.534990 28759.475036 29106.751859 29337.284576 29159.395556 28818.720722 28846.649624 29118.262434 28931.075222 28436.276924 28132.472389 28170.181650 28429.294154 28565.807073 28359.352564 27880.726208 27568.412738 27688.214744 28097.783280 28356.854802 28406.489217 28165.827138 27480.798706 26511.887988 25542.008847 24741.015164 24250.398076 24154.866502 24191.086948 23983.393204 23284.030361 22357.888636 21672.559350 21446.664748 21418.710699 21225.671808 20871.187380 20545.193598 20319.144973 20180.990265 20128.940848 20051.015168 19787.988841 19411.072099 19126.542545 19023.424825 18915.460703 18686.474316 18482.675654 18424.567558 18450.522231 18360.945138 18047.702215 17731.628575 17576.798600 17532.989784 17577.256761 17531.423801 17295.419703 17070.544281 16918.353003 16733.075930 16510.196313 16308.974019 16096.431689 15835.529979 15585.454858 15417.599309 15333.870336 15374.995598 15435.509375 15400.125211 15288.812562 15262.792280 15415.284037 15626.595245 15800.409843 15884.089385 15910.804556 15877.621500 15805.609922 15739.416932 15691.498815 15811.608175 16084.437266 16326.526452 16505.267298 16624.456889 16768.381236 17058.108387 17291.005797 17338.646278 17302.977344 17318.847528 17472.486500 17657.236531 17837.405780 18029.217151 18151.968282 18136.565567 18037.762126 18024.784848 18121.442914 18271.522985 18454.095627 18738.577048 19178.156152 19738.009617 20191.077497 20299.070615 19999.157458 19484.070774 18994.507976 18713.046895 18680.921107 18777.074603 18884.704835 18984.521722 9666.735488 10168.790692 11217.096202 12230.760383 12686.162007 12612.399042 12279.253432 11828.187204 11311.963178 10871.495254 10590.755779 10392.518741 10009.187252 9380.396896 9005.059331 9630.394658 10414.124600 9433.051334 8870.253287 8785.317849 8510.587629 7091.799071 7322.413408 9336.524165 10919.110151 11950.923457 12951.872397 13759.226023 14104.728825 14008.442191 13918.424685 14071.471576 14205.191564 14018.300931 13642.302049 13485.634065 13658.926120 14188.302641 15015.966834 15978.244254 16942.654504 17898.912876 18758.504800 19233.346800 19257.427574 19207.506384 19386.342941 19652.369255 19719.801533 19658.055353 19785.600930 20149.062605 20524.263379 20618.931778 20483.590063 20479.711851 20767.121751 21185.750349 21554.557119 21868.367110 22116.249403 22371.771606 22942.900704 23981.877850 25005.250671 25415.411975 25343.188328 25428.361214 25944.644421 26690.250815 27407.725477 28046.383481 28581.624218 28827.015673 28699.452753 28256.913380 27608.297942 27059.329366 27027.855260 27613.012459 28517.081288 29293.143345 29743.179429 29789.148069 29521.648984 29208.122032 29091.037528 29220.398194 29540.977421 29729.805604 29514.882626 29210.439542 29156.501891 29212.576683 29019.326571 28661.843860 28443.553749 28414.355728 28478.132985 28492.755570 28290.898199 27915.236534 27726.849706 27891.030860 28230.702377 28513.483901 28579.599632 28277.660383 27593.157786 26666.339520 25694.833450 24941.092006 24457.740009 24223.491619 24093.062533 23830.587076 23280.308589 22576.090583 22051.042112 21802.854132 21626.813415 21330.050983 20950.258845 20577.029522 20310.404432 20166.135001 20095.203923 20041.082696 19934.086454 19664.786872 19400.935249 19243.732563 19101.747832 18887.436098 18735.947726 18716.444741 18722.984451 18598.649864 18319.787555 18029.307672 17849.007302 17761.528519 17714.669777 17669.536225 17537.121274 17298.374996 17015.440598 16806.428901 16667.293870 16531.150310 16340.039718 16112.170792 15880.435216 15701.409894 15624.880738 15648.221941 15699.068001 15690.097753 15625.906184 15620.093787 15772.894847 15982.867977 16134.689876 16197.660659 16218.716666 16195.332162 16134.241478 16089.542074 16110.658482 16255.718284 16521.743919 16729.275742 16799.610992 16866.580281 17063.709151 17366.028920 17576.966321 17641.233993 17656.533588 17739.003281 17921.222875 18107.335813 18257.496386 18347.136400 18371.693042 18345.711361 18290.448459 18299.969230 18428.300476 18601.026509 18758.225112 19007.565457 19430.033262 19947.793489 20321.918153 20397.161577 20144.676032 19705.875448 19306.521036 19086.505439 19016.127927 19018.097251 19040.731834 19065.010743 19075.378741 18592.272277 18123.454226 17659.860832 17409.144816 17203.101441 16823.125467 16235.802630 15572.888878 14749.174862 13702.697780 12508.300878 11229.398137 10025.002975 8991.131186 8149.437734 7393.662814 6725.453700 6071.110613 5779.704478 5507.842950 5049.967567 4248.678750 3503.009832 2948.395741 2503.472024 2156.921670 1888.181455 1678.051113 1511.143620 1375.624073 1262.628917 1165.630440 1079.917591 1002.183366 930.188545 862.484428 798.189402 736.814459 678.130996 622.073266 568.668201 517.986297 470.108434 425.104566 383.021075 343.874358 307.648752 274.297382 243.744899 215.891311 190.616367 167.784092 147.247198 128.851191 112.438059 97.849488 84.929566 73.526993 63.496810 54.701694 47.012848 40.310558 34.484446 29.433487 25.065829 21.298466 18.056792 15.274094 12.890981 10.854809 9.119083 7.642891 6.390344 5.330054 4.434649 3.680320 3.046408 2.515034 2.070761 1.700292 1.392199 1.136687 0.925378 0.751127 0.607856 0.490407 0.394415 0.316197 0.252655 0.201190 0.159626 0.126149 0.099249 0.077672 0.060377 0.046502 0.035320 0.026205 0.018518 0.011738 0.008408 18984.521722 18790.069773 18486.153165 18152.822014 17895.686008 17662.842274 17279.042807 16724.751989 16036.706052 15205.421695 14171.297138 12967.998626 11706.244154 10535.006445 9473.845063 8546.769100 7715.132248 6986.264317 6332.265420 5828.418525 5365.947311 4795.974942 4108.098331 3471.420671 2933.392366 2495.569338 2152.370985 1885.233101 1676.031045 1509.725730 1374.622694 1261.923496 1165.135696 1079.569589 1001.934059 930.002574 862.336542 798.062190 736.696429 678.015008 621.955309 568.546449 517.860397 469.978977 424.972696 382.888215 343.742017 307.518388 274.170325 243.622298 215.774109 190.505300 167.679691 147.149802 128.760969 112.355033 97.773553 84.860516 73.464541 63.440611 54.651359 46.967965 40.270701 34.449188 29.402411 25.038533 21.274565 18.035927 15.255931 12.875214 10.841156 9.107291 7.632731 6.381611 5.322566 4.428243 3.674852 3.041753 2.511081 2.067412 1.697462 1.389814 1.134681 0.923697 0.749723 0.606686 0.489435 0.393610 0.315532 0.252108 0.200741 0.159260 0.125851 0.099008 0.077479 0.060225 0.046388 0.035255 0.026234 0.018855 0.012837 0.009065 0.007527 19075.378741 19031.441360 18887.318432 18648.325521 18398.786771 18164.728609 17898.784302 17517.573542 16971.173573 16267.953364 15415.450081 14385.751107 13207.778810 11993.309821 10835.728332 9759.705970 8786.425257 7922.706962 7146.331181 6448.509328 5832.027911 5260.545169 4667.072697 4047.279730 3453.550511 2928.252992 2496.231233 2154.594980 1887.427534 1677.812813 1511.071826 1375.604133 1262.623427 1165.628914 1079.917161 1002.183242 930.188508 862.484416 798.189398 736.814458 678.130995 622.073266 568.668201 517.986297 470.108434 425.104566 383.021075 343.874358 307.648752 274.297382 243.744899 215.891311 190.616367 167.784092 147.247198 128.851191 112.438059 97.849488 84.929566 73.526993 63.496810 54.701694 47.012848 40.310558 34.484446 29.433487 25.065829 21.298466 18.056792 15.274094 12.890981 10.854809 9.119083 7.642891 6.390344 5.330054 4.434649 3.680320 3.046408 2.515034 2.070761 1.700292 1.392199 1.136687 0.925378 0.751127 0.607856 0.490407 0.394415 0.316197 0.252655 0.201190 0.159626 0.126149 0.099249 0.077673 0.060383 0.046519 0.035379 0.026400 0.019183 0.013575 0.009618 0.007636 0.007056 0.008408 0.006988 0.004982 0.003655 0.002720 0.002030 0.001512 0.001123 0.000831 0.000612 0.000449 0.000328 0.000238 0.000172 0.000124 0.000089 0.000063 0.000045 0.000031 0.000022 0.000015 0.000010 0.000007 0.000005 0.000003 0.000002 0.000001 0.000001 0.000001 0.000000 0.000000 0.000000 0.000000 0.000000 -0.000000 -0.000000 -0.000000 -0.000000 -0.000000 -0.000000 -0.000000 -0.000000 -0.000000 -0.000000 -0.000000 -0.000000 -0.000000 -0.000000 -0.000000 -0.000000 0.000000 0.000000 0.000000 0.000000 0.000000 0.000000 0.000000 0.000000 0.000000 0.000000 0.000000 0.000000 0.000000 0.000000 0.000000 0.000000 0.000000 0.000000 -0.000000 0.000000 0.000000 0.000000 0.000000 0.000000 0.000000 0.000000 0.000000 0.000000 0.000000 0.000000 0.000000 0.000000 -0.000000 0.000000 0.000000 0.000000 0.000000 0.000000 0.000000 0.000000 0.000000 0.000000 0.000000 0.000000 0.000000 0.000000 0.000000 0.000000 -0.000000 0.000000 0.000000 -0.000000 0.000000 0.000000 0.000000 0.000000 -0.000000 -0.000000 -0.000000 -0.000000 -0.000000 -0.000000 -0.000000 -0.000000 -0.000000 -0.000000 -0.000000 -0.000000 -0.000000 -0.000000 -0.000000 -0.000000 -0.000000 -0.000000 -0.000000 -0.000000 -0.000000 -0.000000 -0.000000 -0.000000 -0.000000 -0.000000 -0.000001 -0.000001 -0.000001 -0.000002 -0.000003 -0.000004 -0.000005 -0.000007 -0.000009 -0.000013 -0.000018 -0.000025 -0.000034 -0.000046 -0.000062 -0.000084 -0.000114 -0.000153 -0.000206 -0.000275 -0.000367 -0.000489 -0.000649 -0.000860 -0.001135 -0.001493 -0.001960 -0.002565 -0.003346 -0.004353 -0.005647 -0.007305 -0.009422 -0.012118 -0.015540 -0.019872 -0.025337 -0.032212 -0.040834 -0.051615 -0.065054 -0.081756 -0.102448 -0.128006 -0.159478 -0.198112 -0.245391 -0.303072 -0.373224 -0.458279 -0.561080 -0.684942 -0.833710 -1.011829 -1.224416 -1.477337 -1.777285 -2.131870 -2.549701 -3.040486 -3.615137 -4.285930 -5.066825 -5.974324 -7.030178 -8.270093 -9.780734 -11.719671 -12.960091 0.007527 0.007184 0.006117 0.004721 0.003576 0.002691 0.002017 0.001505 0.001118 0.000828 0.000610 0.000447 0.000327 0.000237 0.000172 0.000123 0.000088 0.000063 0.000044 0.000031 0.000022 0.000015 0.000010 0.000007 0.000005 0.000003 0.000002 0.000001 0.000001 0.000001 0.000000 0.000000 0.000000 0.000000 0.000000 -0.000000 -0.000000 -0.000000 -0.000000 -0.000000 -0.000000 -0.000000 -0.000000 -0.000000 -0.000000 -0.000000 -0.000000 -0.000000 -0.000000 -0.000000 -0.000000 -0.000000 0.000000 0.000000 0.000000 0.000000 0.000000 0.000000 0.000000 0.000000 0.000000 0.000000 0.000000 0.000000 0.000000 0.000000 0.000000 0.000000 0.000000 0.000000 -0.000000 0.000000 -0.000000 0.000000 0.000000 -0.000000 0.000000 0.000000 0.000000 -0.000000 -0.000000 0.000000 0.000000 -0.000000 -0.000000 0.000000 0.000000 0.000000 -0.000000 0.000000 0.000000 0.000000 0.000000 -0.000000 0.000000 0.000000 0.000000 0.000000 -0.000000 -0.000000 0.000000 0.000000 0.000000 -0.000000 0.000000 0.000000 0.000000 -0.000000 -0.000000 -0.000000 -0.000000 -0.000000 -0.000000 -0.000000 -0.000000 -0.000000 -0.000000 -0.000000 -0.000000 -0.000000 -0.000000 -0.000000 -0.000000 -0.000000 -0.000000 -0.000000 -0.000000 -0.000000 -0.000000 -0.000000 -0.000000 -0.000000 -0.000000 -0.000001 -0.000001 -0.000001 -0.000002 -0.000003 -0.000004 -0.000005 -0.000007 -0.000009 -0.000013 -0.000018 -0.000024 -0.000033 -0.000046 -0.000062 -0.000084 -0.000113 -0.000152 -0.000205 -0.000274 -0.000366 -0.000488 -0.000647 -0.000857 -0.001131 -0.001489 -0.001954 -0.002557 -0.003336 -0.004340 -0.005631 -0.007284 -0.009396 -0.012085 -0.015499 -0.019820 -0.025273 -0.032133 -0.040736 -0.051495 -0.064907 -0.081575 -0.102228 -0.127739 -0.159154 -0.197720 -0.244920 -0.302506 -0.372548 -0.457474 -0.560124 -0.683811 -0.832377 -1.010263 -1.222584 -1.475199 -1.774801 -2.128990 -2.546371 -3.036632 -3.610634 -4.280499 -5.059684 -5.963043 -7.006797 -8.207825 -9.575618 -11.064572 -12.153880 -12.554379 0.007056 0.006995 0.006575 0.005646 0.004551 0.003528 0.002682 0.002018 0.001509 0.001122 0.000831 0.000612 0.000449 0.000328 0.000238 0.000172 0.000124 0.000089 0.000063 0.000045 0.000031 0.000022 0.000015 0.000010 0.000007 0.000005 0.000003 0.000002 0.000001 0.000001 0.000001 0.000000 0.000000 0.000000 0.000000 0.000000 -0.000000 -0.000000 -0.000000 -0.000000 -0.000000 -0.000000 -0.000000 -0.000000 -0.000000 -0.000000 -0.000000 -0.000000 -0.000000 -0.000000 -0.000000 -0.000000 0.000000 0.000000 0.000000 0.000000 0.000000 0.000000 0.000000 0.000000 0.000000 0.000000 0.000000 0.000000 0.000000 0.000000 0.000000 0.000000 0.000000 0.000000 -0.000000 0.000000 0.000000 0.000000 0.000000 0.000000 0.000000 0.000000 0.000000 0.000000 0.000000 -0.000000 0.000000 0.000000 -0.000000 0.000000 0.000000 0.000000 0.000000 0.000000 0.000000 0.000000 0.000000 0.000000 -0.000000 0.000000 0.000000 0.000000 0.000000 -0.000000 -0.000000 0.000000 0.000000 0.000000 0.000000 0.000000 0.000000 0.000000 -0.000000 -0.000000 -0.000000 -0.000000 -0.000000 -0.000000 -0.000000 -0.000000 -0.000000 -0.000000 -0.000000 -0.000000 -0.000000 -0.000000 -0.000000 -0.000000 -0.000000 -0.000000 -0.000000 -0.000000 -0.000000 -0.000000 -0.000000 -0.000000 -0.000000 -0.000000 -0.000001 -0.000001 -0.000001 -0.000002 -0.000003 -0.000004 -0.000005 -0.000007 -0.000009 -0.000013 -0.000018 -0.000025 -0.000034 -0.000046 -0.000062 -0.000084 -0.000114 -0.000153 -0.000206 -0.000275 -0.000367 -0.000489 -0.000649 -0.000860 -0.001135 -0.001493 -0.001960 -0.002565 -0.003346 -0.004353 -0.005647 -0.007305 -0.009422 -0.012118 -0.015540 -0.019872 -0.025337 -0.032212 -0.040834 -0.051615 -0.065054 -0.081756 -0.102448 -0.128006 -0.159478 -0.198112 -0.245391 -0.303072 -0.373224 -0.458279 -0.561080 -0.684942 -0.833710 -1.011829 -1.224416 -1.477336 -1.777283 -2.131862 -2.549675 -3.040401 -3.614861 -4.285026 -5.063863 -5.964631 -6.998437 -8.166399 -9.436826 -10.691903 -11.718739 -12.220348 -12.331900 -12.960091 -15.034458 -18.979895 -23.018832 -27.276365 -31.879371 -36.886757 -42.341486 -48.281035 -54.740271 -61.751929 -69.346351 -77.550986 -86.389805 -95.882676 -106.044730 -116.885726 -128.409430 -140.613008 -153.486455 -167.012067 -181.163967 -195.907693 -211.199882 -226.988054 -243.210536 -259.796567 -276.666617 -293.732979 -310.900685 -328.068746 -345.131727 -361.981551 -378.509377 -394.607269 -410.169286 -425.091546 -439.270811 -452.601150 -464.968313 -476.241012 -486.256759 -494.796370 -501.536517 -506.000552 -507.636278 -506.132673 -502.630773 -502.994765 -522.407485 -531.390269 -578.055670 -587.242023 -618.211891 -786.932838 -1027.304767 -1047.741199 -669.502949 -367.242842 -292.519543 -345.886670 -425.563486 -626.134682 -982.727543 -1248.759557 -1063.816524 -509.718694 -211.781090 -280.284021 -246.887266 644.250238 2681.071795 4283.165202 3851.883194 1240.920201 -510.982533 -1860.816334 -1935.329791 -1597.936912 -1019.967411 -400.877513 10.362905 -91.637576 -143.881155 446.620571 1666.693668 2612.179637 3504.403144 4140.582067 4902.197720 6674.717169 8110.849739 9842.856017 11024.278128 11589.953630 11862.677891 11951.036170 12238.798539 13011.799858 13698.487542 13297.804000 -12.554379 -13.503393 -15.784847 -19.223450 -23.072506 -27.279793 -31.866681 -36.868071 -42.319857 -48.257431 -54.715047 -61.725272 -69.318416 -77.521938 -86.359833 -95.851995 -106.013584 -116.854390 -128.378203 -140.582216 -153.456451 -166.983224 -181.136677 -195.882365 -211.176933 -226.967907 -243.193609 -259.783266 -276.657319 -293.728023 -310.900352 -328.073245 -345.141182 -361.995999 -378.528774 -394.631518 -410.198279 -425.125237 -439.309302 -452.644797 -465.017857 -476.297820 -486.323395 -494.878074 -501.644192 -506.144206 -507.804749 -506.328142 -502.615106 -501.033555 -514.363766 -539.319285 -557.106957 -580.238391 -613.577246 -686.678812 -783.577148 -771.027040 -603.177621 -429.670159 -392.461590 -459.059811 -562.035132 -779.966842 -1121.096244 -1397.509060 -1402.449958 -1146.398091 -871.702761 -828.558719 -933.697639 -486.826160 716.180004 1723.682715 1477.889884 256.165252 -1014.253367 -1940.749686 -2379.779861 -2273.459562 -1668.806531 -833.643096 -257.419400 115.212723 475.772425 1034.045661 1925.370115 2784.035510 3373.767317 3862.603134 4742.930299 6245.060045 7621.101320 8853.064493 9872.102254 10545.147176 10900.389560 11130.740732 11486.753315 11982.650206 12353.736552 11921.352144 10826.456035 -12.331900 -12.687729 -13.904189 -16.266281 -19.422425 -23.151054 -27.316915 -31.891758 -36.890542 -42.342643 -48.281388 -54.740379 -61.751962 -69.346361 -77.550989 -86.389806 -95.882676 -106.044730 -116.885726 -128.409430 -140.613008 -153.486455 -167.012067 -181.163967 -195.907693 -211.199882 -226.988054 -243.210536 -259.796567 -276.666617 -293.732979 -310.900685 -328.068746 -345.131727 -361.981551 -378.509377 -394.607269 -410.169286 -425.091547 -439.270812 -452.601156 -464.968342 -476.241156 -486.257420 -494.799375 -501.548024 -506.024613 -507.673604 -506.269829 -502.731081 -500.554726 -508.514290 -534.138267 -564.121516 -587.791519 -606.400844 -635.594737 -665.581794 -640.742567 -536.767995 -429.012016 -435.256868 -551.496012 -697.923126 -871.540101 -1147.326995 -1444.506095 -1550.989274 -1416.157466 -1267.932650 -1256.854594 -1259.603566 -944.623382 -264.267889 341.304376 267.887899 -409.542491 -1234.158709 -1915.749242 -2320.240165 -2263.104095 -1767.780738 -1045.739412 -379.207712 173.163954 713.099353 1371.188062 2035.586958 2715.602848 3353.617977 3925.532407 4725.710438 5834.577900 7076.123682 8264.813993 9280.792816 9994.998367 10443.272698 10738.784317 11035.199831 11399.541569 11550.846750 10992.298481 10123.782183 9666.735488 7052.415195 985.588309 5264.495739 3610.208539 3599.868134 2282.398711 6515.193592 4878.411956 5385.261224 4426.005225 7788.386885 4049.898063 4573.035241 11558.584992 11662.188508 10723.033701 12214.850061 12816.766463 14629.651392 14626.437282 3948.036777 -200.568776 3409.064955 7365.668617 4459.723812 4368.652477 3319.862007 4047.413680 4521.474394 7625.112392 4217.944195 11218.744192 11459.720412 8474.897146 6401.285007 12958.765433 10752.180318 12075.121108 13855.446534 13821.952676 6798.551863 4850.702621 2792.433507 3877.299183 3563.939955 6251.265990 8627.379556 5708.870537 6501.903037 5086.222684 5828.594112 8815.772795 3646.336066 12271.708357 9014.197422 14816.309311 13031.575828 12230.839173 14996.804001 13319.949363 6689.269114 6351.647294 -7992.965208 4759.984438 8881.101261 5344.227782 4408.798261 5919.793930 8175.259340 9631.402090 13080.546485 5612.581200 5895.903656 7960.891420 7811.659793 11697.555477 10332.090247 14093.001710 10722.175393 12739.001342 7286.925178 8463.874030 14030.809055 7305.711249 5045.411960 9368.972352 108416.471801 1060.371077 5682.887744 6221.380934 10695.181019 5426.245374 10423.972079 9104.219656 4577.713694 12581.940905 8423.584614 4827.171060 11932.014339 11219.179056 9314.027048 9560.648077 6851.189752 5298.367653 5710.862322 3034.675036 8222.857505 -6101.600370 9729.213963 9735.850265 12373.181685 13504.259808 12613.896957 6465.319311 7411.303543 9613.470384 10255.201009 7325.279957 11706.684043 11366.552536 6404.546020 7488.412871 10393.623315 9199.893256 9279.148754 22863.163367 10582.117078 6472.693490 4270.528211 4477.323031 2293.314499 5689.407095 6036.397043 11360.977636 6367.542701 2854.843886 11408.807670 11665.435328 9355.616472 11026.261073 56960.153437 8521.776871 10060.721808 7319.257883 8092.052152 8240.525138 -1496.299886 16191.458244 14629.251202 1482.817715 5756.759729 12854.610443 8232.441381 8245.812674 322.559778 6018.920115 9872.530816 6442.887185 12696.948095 8934.239999 7448.968301 10278.736274 9175.792325 4695.733216 112912.670705 10588.208507 13755.176175 3261.921278 5909.219524 6947.199997 -1759.174491 8987.103610 10184.525969 13237.921604 10715.200686 8977.591082 15324.556527 7858.884943 8323.423207 11003.876404 31360.388442 13843.507067 8496.958492 15252.169550 7340.683042 104382.931221 4687.715590 9112.344329 7745.794532 9621.957067 13080.907091 5245.947663 12246.590363 94352.237554 7542.999308 11579.358762 53411.684065 11222.862603 16201.408464 13523.920679 -3637.864322 3714.543361 123905.541605 8553.481325 9100.632279 7868.760791 -4687.291969 8016.223860 -17685.110781 625.922663 12839.890789 9715.168505 8218.969236 14469.907040 9863.347939 -5040.971410 10830.353627 12815.938698 14377.053343 10845.666022 9949.729039 11978.918874 99908.240455 10873.930615 8223.154890 7620.823201 8657.162172 7880.653611 10704.436304 15989.594971 11129.425727 6956.694523 9030.217905 7963.026488 11632.265997 9915.514481 -2096.548343 16083.725524 18396.785920 -21586.651346 23906.304985 12159.447869 7303.632073 6467.957496 10814.031605 -20468.106249 10001.259533 9525.569569 9635.676020 8433.189498 7144.530079 10480.756356 9835.056524 8241.993474 15316.050023 12454.390555 13488.855465 12301.261225 16399.620045 15119.943495 8736.723763 8053.750879 8863.684010 9678.265158 13570.123759 11691.183130 10509.791314 10582.646590 9510.703320 8841.869387 6164.370285 9536.596721 9437.718698 15506.085651 9542.648355 12702.758908 14820.680356 15617.870847 9836.418225 11116.499182 7221.234916 11764.621488 11487.537816 10535.491674 11642.353654 7488.714078 11427.142045 9243.415362 12061.747530 7641.906839 13092.654311 11036.610750 9531.174878 11708.914715 8099.161909 14676.651195 15560.334512 14473.554373 11895.431278 15714.712390 7656.777762 9983.837528 12383.847151 11291.897834 10716.761050 11231.815543 8991.964836 8719.808793 9967.101678 11171.329440 11807.560411 12917.348877 115928.322820 9417.619838 12654.169903 13700.807435 15076.100685 4673.545518 10907.607798 14315.117314 9749.948906 11853.083270 15606.606475 11078.295266 7685.366999 15059.360175 10230.914594 8135.909679 9764.106994 10040.634147 19488.903683 12409.803437 16353.314779 13085.038907 13232.482238 16708.418265 14511.369701 -17505.670872 -4222.354502 -16978.421528 15555.669287 9035.636096 8905.124553 9531.879072 9429.831606 9389.465636 16500.229447 13702.279134 12986.129293 11795.089869 10973.645955 16809.118835 12407.625211 18112.546123 15798.397381 16606.244570 13534.012250 14504.946019 14004.710972 3423.150521 16542.646446 15426.433106 8910.429124 15597.981511 17270.459825 17919.921142 15122.340475 21110.712233 13588.936230 14702.771729 16178.267601 21986.002948 14758.486562 16971.083183 14891.304814 17987.512526 14747.220116 16058.228104 12492.026200 14102.198849 16541.163811 11899.495225 12442.956650 15391.611167 15750.135929 13786.246628 17386.092903 13074.053168 10589.119164 17372.556832 23117.088415 19431.691547 20350.043908 13421.614073 18910.438052 18465.444019 18476.779325 10153.227082 -12770.542352 9856.817089 13646.154550 14886.069656 14559.854419 14227.594423 13292.499705 14295.985374 19485.969456 17940.497771 14319.553361 14116.044586 23698.353345 16058.510638 18950.139927 13869.075118 21007.437232 18795.596488 16982.734461 19856.266090 19696.570689 9276.410564 17296.125449 14361.932573 16798.923991 10240.678394 11991.993172 13784.407111 16549.066472 14407.000070 17678.073271 14825.210906 17348.011657 18479.701655 15292.772873 22807.992434 15640.717053 18665.043561 17638.905382 16498.306900 14432.302004 14609.934854 16564.601449 10030.583968 10452.796502 11362.643141 13777.069377 10434.508142 11979.700351 14534.241439 10652.252093 12415.705941 20964.167566 16527.149585 17214.048042 23705.775418 20986.233020 21316.377489 19259.991743 18378.125726 13954.346221 16821.382232 14284.038933 11977.239282 15717.629802 9767.628048 11147.806052 8111.087883 15177.243438 18250.883616 18106.343094 13515.193216 14373.600799 13400.237245 23841.046764 15882.278586 21998.841290 20784.808849 17181.527146 22997.554400 14547.933581 13555.285604 12272.034504 15435.904456 12155.916523 11767.679722 15284.972798 12781.599662 17750.099097 13721.606602 16154.663391 14684.563547 18119.735299 17592.493936 22004.653439 20025.036130 22224.649508 22057.724418 19888.970438 20089.745227 17995.725500 15179.555259 11889.978967 19461.081340 18579.334476 13958.457952 18451.851816 16252.258769 13550.014930 20023.707117 12436.849481 18859.900547 19719.984349 20485.977936 22905.968586 21171.544658 20840.058806 18353.695554 22009.942222 16691.485894 17506.463521 15820.723463 21531.358236 17847.138739 11005.790956 13684.273718 9518.822244 18750.166042 16052.134946 16729.667721 20739.716537 22076.597974 22339.049057 22769.054343 19563.500051 23850.468053 18743.822859 17532.461765 23414.202348 19211.229168 19023.598894 15304.467201 12655.534855 10024.332267 14184.377293 10567.847267 10196.596951 10579.210703 15398.033214 19912.690692 21714.554440 22613.178316 20403.037722 19018.182182 16520.357809 20428.971275 21364.165571 21312.627552 17842.420867 22569.183001 15086.771235 18588.410033 8867.470520 11794.978009 6220.258690 15249.317451 16403.048175 16220.602344 15182.505353 13564.285328 13291.050325 23182.417999 15086.227065 17443.438122 23111.545455 23953.454680 23719.701819 23568.341992 22364.242781 23824.092581 23875.236558 18742.415881 576.991083 10412.234404 7072.754901 11020.521510 11844.434568 14027.592076 11767.736952 14739.411826 14162.841879 18882.059064 14352.300136 22878.420725 16480.051506 20895.914487 24204.608451 23333.971121 21845.326566 21040.632193 19415.481926 15663.254075 2212.800623 3734.464353 2240.801347 8881.850942 5470.340784 12110.137747 13082.705340 12932.681370 13234.216832 17927.180086 16472.087415 14857.256513 18307.930177 19262.678577 21939.018194 23201.537165 20953.355685 22247.644759 16283.311856 19265.884925 2135.546344 5752.694889 1001.596982 3345.227952 11411.852801 7279.435434 14897.560689 9837.567841 13926.660379 12581.913279 13597.332203 11955.722661 16056.594207 22630.138601 20283.110695 23177.217613 21524.780251 23677.484122 15395.631926 19285.516495 2841.254406 2097.537904 3281.835933 2289.792488 3642.501263 12816.495170 9368.420700 10497.333011 13260.353100 15749.005732 13683.604180 17151.667225 23931.756631 18095.733687 21403.266992 23246.544597 22764.645811 19702.068090 16511.032375 19493.864628 1717.111921 1718.943745 2733.629569 901.254226 5622.307662 11003.895301 8867.380871 13861.692845 14767.294932 12112.227251 14516.599644 16577.730812 13689.325685 16320.009933 21093.504406 20725.100699 20817.674655 23259.376217 15258.979230 15160.664416 1877.764405 751.331972 2169.493895 2039.099963 6393.752319 8869.500956 8867.851971 9599.946647 16698.450678 14997.528484 18009.333053 20045.472656 13671.253292 23471.317043 24466.287286 23922.880295 21364.840325 23328.449897 20681.547052 18511.119203 2017.345101 3743.003682 2014.415277 4983.275056 7794.752930 5800.098004 7606.591965 7839.752098 9099.199767 11285.621519 15018.776512 17043.107157 21