<VTKFile type="PolyData">
<PolyData>
<Piece NumberOfPoints="6715" NumberOfVerts="6715" NumberOfLines="0" NumberOfStrips="0" NumberOfPolys="0">
<PointData>
<DataArray type="Float64" Name="Pressure" format="ascii">
 8925.524202 10451.673790 11184.110605 12052.441677 12804.197652 12711.252464 11549.183243 10133.775960 8933.886404 8008.699757 7964.379831 5344.116326 1672.802075 -4958.147197 -8538.926857 -2720.020735 20968.648392 30918.775034 3811.857194 -13407.364927 -10827.694625 -891.808070 5670.536266 8876.772688 9107.845705 9463.170069 8792.121241 8640.896876 9301.709015 8666.505295 7132.536211 6903.037489 7622.203038 9123.594597 10327.206858 11512.047068 11430.519170 11434.798423 11983.468841 12439.011602 12002.297940 11733.472446 11852.878245 12127.128333 11966.840908 10969.631585 10451.467870 11721.461449 13199.002074 14103.144056 14209.693670 14334.237510 14954.353808 15514.978486 16011.670575 17296.994587 18695.783735 18109.872484 16573.210150 16416.676140 17399.860008 18291.495641 19153.553042 20030.649659 20451.079079 20543.075635 20107.180994 19414.898149 19641.513937 19638.028782 19436.362109 19597.474060 19282.873933 18783.194649 19075.216992 19388.837774 18991.366612 18555.076790 18690.711562 18748.798341 18437.222782 18166.016334 18019.744208 18017.201455 18319.930854 19294.952765 19664.940427 18588.971814 16927.041566 16989.319653 17982.412058 18387.521099 18477.314878 18734.186117 18627.907266 18379.286711 18144.230997 17696.622102 17838.168196 19069.859208 20295.791963 19899.193737 18790.807819 18129.442405 17931.717219 17944.840772 17596.172399 17517.656654 17702.200767 17655.106766 17862.003363 17903.585330 18188.007655 18012.758668 18118.377369 18188.128488 18200.051105 18458.427389 19209.207784 19687.555656 19289.180073 18614.077457 18231.449286 17663.662469 17737.512263 18404.909176 19349.052100 19627.146434 19124.995934 19064.946844 18708.301200 18411.009574 18613.910819 18927.545519 19086.356165 19163.719939 18921.484940 18974.724016 19422.522250 19897.046818 20371.395861 20815.406491 19990.268775 18638.863312 18768.232766 19231.914434 19490.658777 19499.860786 19405.290116 19467.306197 19372.231125 18859.280592 18633.147450 18996.170209 19169.408309 18957.518509 18647.760516 18491.310457 18416.243494 18367.875558 18355.175781 18189.089788 18031.420295 17966.170656 18083.499924 18091.554757 17892.904134 18187.998477 18532.114008 18331.714938 18630.851161 18633.320470 18199.804541 17671.574208 17620.955666 17629.767191 17617.973211 17660.608831 17811.661972 17894.009719 17871.332662 17623.561234 17440.381011 17454.331180 17688.628763 17909.337540 18264.375298 18479.887260 18491.715773 18288.317558 18054.277148 18274.010286 18969.314058 19314.846391 18884.153976 18375.798810 18448.750374 18127.083873 17816.746699 17812.728930 17471.955541 7631.299157 8059.283696 8905.597722 9940.415197 10632.919600 10716.686599 10504.751942 10774.768330 10389.721142 8699.829173 7216.271901 8139.627679 8455.495605 6733.444702 3081.662446 -1667.757755 -5093.564305 -8856.521767 -10009.835213 -8607.345139 -4744.579747 2529.422390 8696.262916 9403.789384 9844.042413 10098.780813 9517.533905 8658.139401 8928.413051 9120.798838 8361.254991 7526.006099 7291.028664 7689.614810 8669.490634 9933.016028 10959.206380 11345.940250 11738.041167 12182.838145 12326.883797 11993.747872 11696.896243 11865.737889 12058.734443 11805.533028 11144.211823 10922.833520 11742.603409 12859.467364 13736.015101 14126.906810 14361.986817 15032.342793 15827.870311 16583.861896 17459.159636 17949.194818 17643.610821 17360.549204 17526.960325 17914.584016 18366.808647 18948.086834 19537.897739 19958.269235 19983.626768 19697.497455 19234.914913 18940.392503 18907.257509 18810.193319 18601.086650 18508.543037 18608.312828 18676.284013 18556.408608 18383.725522 18414.552313 18511.240492 18391.017300 18051.339371 17769.528885 17684.675117 17638.315704 17659.485918 18061.447408 18354.206524 17854.340168 17280.997331 17447.416959 17877.132812 18128.389453 18078.602447 17941.943862 17822.986654 17659.792935 17566.522840 17647.335240 17874.150556 18466.379189 19053.658361 18891.869674 18286.309128 17856.855379 17769.399373 17610.380261 17378.996466 17466.855714 17771.008351 17890.646470 17843.743129 17841.407171 17947.673955 17966.164718 17976.023721 18109.493561 18334.231613 18629.764374 18924.230846 19106.524715 18873.508005 18435.019044 18174.097308 17814.468166 17728.352922 18262.060050 18934.033015 19208.920744 19203.922770 19131.399796 18779.953954 18615.121101 18944.086932 19384.249312 19628.744931 19491.905791 19216.212795 19132.838152 19359.136056 19639.899917 19861.859618 19946.706220 19658.059677 19231.518172 19234.571387 19439.246557 19506.574330 19465.991775 19453.148985 19370.436005 19203.228972 18918.998108 18693.148777 18773.276521 18841.683139 18743.988107 18631.624922 18524.876755 18378.439083 18282.341467 18210.846492 18081.854754 17940.639706 17892.780422 17944.890406 17965.321897 17920.779504 17990.019918 18265.168653 18134.738716 17704.471683 17532.712033 17861.506985 18102.941253 17975.525128 17806.579852 17774.288546 17825.922925 17980.263658 18118.470848 18081.601347 17868.338494 17704.187045 17735.148364 17944.391442 18152.982778 18377.499044 18581.681076 18534.871406 18413.803598 18467.222772 18624.148670 18803.517012 18819.859618 18707.053814 18585.708985 18389.437808 18110.950043 17758.514038 17461.336760 17233.994118 17053.115494 7029.506868 7266.178473 7716.144983 8267.065786 8826.345487 9237.870680 9331.893947 9269.180597 9551.084418 9829.538560 9707.170928 9293.321295 8828.548208 7958.434669 6746.306176 5197.022316 3281.397457 1128.905249 -1005.006625 -2361.449559 -405.486661 3922.977836 7452.790707 8595.404403 8432.300307 8616.188236 9061.353455 8921.808898 8719.452771 8950.587736 9010.480775 8656.556877 8314.796878 8226.328204 8427.586000 8967.960229 9749.091105 10467.861231 11036.226876 11450.156587 11692.498762 11720.335354 11592.438620 11492.781629 11557.466084 11664.225055 11604.202938 11469.875749 11588.657700 12057.428873 12784.712910 13549.574583 14093.476799 14490.138229 14986.002170 15590.462634 16270.344168 16875.420894 17186.040907 17265.484451 17393.755469 17669.019980 17960.706517 18287.215123 18697.857553 19148.039439 19507.857433 19629.831590 19560.009022 19378.825095 19182.871485 19073.965873 18874.871775 18552.250101 18390.976055 18401.668325 18410.055806 18371.711206 18329.843961 18297.767013 18208.790760 17989.508733 17704.571523 17479.884972 17397.735883 17394.305366 17424.054371 17565.741006 17655.577399 17483.194998 17337.254765 17422.189131 17596.780990 17701.224310 17663.983139 17555.923461 17443.202992 17305.242471 17240.972217 17336.333000 17571.433061 17913.827135 18172.772838 18143.744499 17907.710110 17750.664482 17752.516998 17724.317401 17670.356071 17697.921423 17742.698788 17751.316921 17750.954581 17809.894735 17869.136353 17905.425099 17977.948259 18110.535950 18244.113823 18390.167531 18527.199209 18571.737160 18493.032782 18328.567725 18141.760779 18002.121241 18057.893393 18338.218057 18700.143300 19065.746275 19161.091846 19070.863481 18812.715957 18733.512450 18956.844181 19254.701393 19385.163383 19289.390583 19110.817450 19068.738474 19233.276685 19464.271589 19630.643693 19655.057411 19504.291841 19343.821673 19328.086644 19408.469564 19436.950853 19380.893419 19290.934322 19160.801583 18966.826297 18726.353202 18539.720006 18494.885295 18494.008398 18441.269861 18376.730124 18282.791787 18159.270862 18051.620092 17951.196768 17828.894847 17715.740748 17697.129491 17753.886176 17808.898032 17811.117012 17790.030041 17886.059908 17922.423580 17716.504992 17639.299210 17741.146117 17821.559475 17787.287136 17760.561296 17762.780196 17794.314191 17868.835306 17939.379940 17913.480590 17817.377353 17753.253353 17814.080192 17979.322430 18152.011138 18306.295335 18427.505962 18440.983010 18439.516764 18550.010355 18692.603864 18753.934415 18698.630937 18567.920741 18395.478377 18173.093083 17936.694504 17671.218379 17388.303533 17139.182174 16964.004594 16891.434849 17471.955541 17884.461406 17875.696649 17694.507247 17305.294379 16799.991269 15925.375820 14792.868182 13773.568869 12934.921792 12032.651367 11143.116944 10443.022858 9704.392095 8927.064677 8218.520426 7661.141558 7202.630593 6970.464527 6857.568469 6521.427356 5849.573407 5361.381570 4869.866497 4371.335403 3956.813680 3610.800128 3313.789626 3055.433619 2828.941880 2629.140660 2451.741306 2293.088745 2150.046984 2019.943455 1900.531876 1789.956002 1686.710934 1589.602573 1497.706222 1410.325310 1326.951306 1247.226034 1170.907413 1097.839367 1027.926266 961.111928 897.362943 836.655938 778.968249 724.271509 672.527608 623.686545 577.685730 534.450364 493.894552 455.922898 420.432352 387.314145 356.455683 327.742317 301.058928 276.291293 253.327224 232.057480 212.376470 194.182756 177.379402 161.874163 147.579573 134.412930 122.296218 111.155967 100.923086 91.532670 82.923795 75.039307 67.825616 61.232493 55.212878 49.722695 44.720682 40.168225 36.029208 32.269872 28.858676 25.766174 22.964894 20.429220 18.135288 16.060875 14.185298 12.489311 10.954983 9.565533 8.304997 7.157301 6.103497 5.108745 4.139122 3.629466 17053.115494 17232.704082 17431.133461 17478.823187 17302.575290 16929.413093 16374.449627 15594.098044 14678.297905 13742.246278 12856.695894 12035.032143 11228.275331 10435.802048 9690.130600 8996.661802 8343.168799 7787.837317 7357.333357 7005.857651 6645.591953 6232.284148 5811.173144 5341.878131 4823.174833 4351.292083 3950.165485 3607.724682 3311.846679 3053.958508 2827.745395 2628.147420 2450.912942 2292.399933 2149.476733 2019.472856 1900.143651 1789.634537 1686.442368 1589.374852 1497.509123 1410.150401 1326.791849 1247.076836 1170.764640 1097.700339 1027.789252 960.975948 897.227593 836.521232 778.834488 724.139176 672.397280 623.558826 577.561206 534.329564 493.777932 455.810827 420.325110 387.211920 356.358583 327.650377 300.972117 276.209528 253.250379 231.985396 212.308963 194.119628 177.320443 161.819161 147.528314 134.365205 122.251822 111.114702 100.884765 91.497114 82.890833 75.008779 67.797370 61.206386 55.188774 49.700468 44.700211 40.149397 36.011917 32.254017 28.844161 25.752910 22.952796 20.418210 18.125290 16.051822 14.177131 12.481989 10.948516 9.560095 8.301281 7.157753 6.116485 5.168651 4.324288 3.764998 3.532998 16891.434849 16957.171326 17099.813619 17236.928007 17246.031259 17052.114978 16675.881045 16122.667362 15404.437131 14579.303743 13712.166450 12853.230995 12036.767813 11255.113253 10495.905914 9772.453395 9094.761331 8465.889678 7922.091255 7464.015045 7065.935752 6663.196633 6234.754602 5773.562030 5278.156970 4788.810534 4341.616986 3948.985077 3608.711227 3313.212975 3055.257764 2828.888502 2629.125223 2451.736950 2293.087568 2150.046658 2019.943358 1900.531846 1789.955993 1686.710932 1589.602572 1497.706222 1410.325310 1326.951306 1247.226034 1170.907413 1097.839367 1027.926266 961.111928 897.362943 836.655938 778.968249 724.271509 672.527608 623.686545 577.685730 534.450364 493.894552 455.922898 420.432352 387.314145 356.455683 327.742317 301.058928 276.291293 253.327224 232.057480 212.376470 194.182756 177.379402 161.874163 147.579573 134.412930 122.296218 111.155967 100.923086 91.532670 82.923795 75.039307 67.825616 61.232493 55.212878 49.722695 44.720682 40.168225 36.029208 32.269872 28.858676 25.766174 22.964894 20.429221 18.135290 16.060883 14.185325 12.489398 10.955267 9.566464 8.308043 7.167280 6.136054 5.217776 4.442985 3.864302 3.566933 3.480225 3.629466 3.319102 2.830878 2.446240 2.126535 1.850445 1.609400 1.398333 1.213495 1.051763 0.910416 0.787047 0.679513 0.585910 0.504543 0.433909 0.372677 0.319668 0.273840 0.234276 0.200164 0.170796 0.145544 0.123863 0.105273 0.089355 0.075744 0.064122 0.054211 0.045771 0.038594 0.032499 0.027330 0.022953 0.019251 0.016124 0.013487 0.011267 0.009399 0.007830 0.006515 0.005413 0.004491 0.003722 0.003080 0.002545 0.002100 0.001731 0.001424 0.001171 0.000961 0.000787 0.000644 0.000527 0.000430 0.000350 0.000285 0.000232 0.000188 0.000152 0.000123 0.000100 0.000080 0.000065 0.000052 0.000042 0.000034 0.000027 0.000022 0.000017 0.000014 0.000011 0.000009 0.000007 0.000005 0.000004 0.000003 0.000002 0.000002 0.000001 0.000001 0.000000 -0.000000 -0.000000 -0.000001 -0.000001 -0.000002 -0.000003 -0.000003 -0.000004 -0.000005 -0.000007 -0.000009 -0.000011 -0.000013 -0.000017 -0.000021 -0.000026 -0.000032 -0.000039 -0.000049 -0.000060 -0.000074 -0.000091 -0.000112 -0.000138 -0.000169 -0.000207 -0.000252 -0.000308 -0.000375 -0.000457 -0.000555 -0.000673 -0.000816 -0.000987 -0.001193 -0.001440 -0.001734 -0.002087 -0.002507 -0.003008 -0.003604 -0.004313 -0.005152 -0.006147 -0.007324 -0.008713 -0.010351 -0.012280 -0.014548 -0.017211 -0.020332 -0.023985 -0.028255 -0.033238 -0.039044 -0.045801 -0.053650 -0.062757 -0.073305 -0.085507 -0.099598 -0.115847 -0.134558 -0.156071 -0.180768 -0.209077 -0.241479 -0.278509 -0.320764 -0.368909 -0.423681 -0.485900 -0.556470 -0.636390 -0.726761 -0.828795 -0.943821 -1.073295 -1.218808 -1.382096 -1.565051 -1.769724 -1.998340 -2.253307 -2.537220 -2.852876 -3.203277 -3.591643 -4.021413 -4.496258 -5.020081 -5.597025 -6.231473 -6.928054 -7.691636 -8.527335 -9.440498 -10.436709 -11.521775 -12.701713 -13.982742 -15.371264 -16.873845 -18.497190 -20.248124 -22.133554 -24.160446 -26.335785 -28.666540 -31.159642 -33.821977 -36.660500 -39.682680 -42.898105 -46.323912 -50.002619 -54.080913 -58.804045 -61.623423 3.532998 3.431458 3.156827 2.780053 2.430899 2.120831 1.847728 1.607694 1.397036 1.212412 1.050826 0.909596 0.786326 0.678880 0.585353 0.504054 0.433482 0.372303 0.319342 0.273556 0.234028 0.199949 0.170608 0.145382 0.123723 0.105152 0.089250 0.075654 0.064044 0.054144 0.045713 0.038544 0.032457 0.027294 0.022922 0.019225 0.016102 0.013469 0.011251 0.009386 0.007819 0.006505 0.005405 0.004484 0.003716 0.003075 0.002541 0.002097 0.001728 0.001422 0.001169 0.000959 0.000786 0.000643 0.000526 0.000429 0.000350 0.000285 0.000231 0.000188 0.000152 0.000123 0.000100 0.000080 0.000065 0.000052 0.000042 0.000034 0.000027 0.000021 0.000017 0.000014 0.000011 0.000009 0.000007 0.000005 0.000004 0.000003 0.000002 0.000002 0.000001 0.000001 0.000000 -0.000000 -0.000000 -0.000001 -0.000001 -0.000002 -0.000003 -0.000003 -0.000004 -0.000005 -0.000007 -0.000009 -0.000011 -0.000013 -0.000017 -0.000021 -0.000026 -0.000032 -0.000039 -0.000049 -0.000060 -0.000074 -0.000091 -0.000112 -0.000137 -0.000168 -0.000206 -0.000252 -0.000307 -0.000375 -0.000456 -0.000554 -0.000672 -0.000815 -0.000986 -0.001191 -0.001437 -0.001732 -0.002084 -0.002504 -0.003004 -0.003599 -0.004307 -0.005145 -0.006139 -0.007314 -0.008702 -0.010338 -0.012265 -0.014530 -0.017190 -0.020308 -0.023957 -0.028222 -0.033200 -0.039001 -0.045751 -0.053593 -0.062691 -0.073230 -0.085421 -0.099500 -0.115735 -0.134431 -0.155926 -0.180603 -0.208891 -0.241268 -0.278271 -0.320496 -0.368607 -0.423343 -0.485520 -0.556044 -0.635914 -0.726230 -0.828204 -0.943163 -1.072564 -1.217998 -1.381201 -1.564061 -1.768633 -1.997139 -2.251987 -2.535773 -2.851292 -3.201547 -3.589755 -4.019358 -4.494025 -5.017659 -5.594403 -6.228640 -6.924998 -7.688347 -8.523801 -9.436709 -10.432656 -11.517446 -12.697100 -13.977836 -15.366058 -16.868332 -18.491366 -20.241983 -22.127094 -24.153665 -26.328679 -28.659099 -31.151826 -33.813652 -36.651210 -39.670921 -42.878914 -46.280759 -49.879804 -53.659530 -57.485959 -60.197141 -61.257423 3.480225 3.451481 3.324184 3.064314 2.745524 2.420522 2.118666 1.848043 1.608666 1.398109 1.213426 1.051742 0.910410 0.787045 0.679513 0.585909 0.504542 0.433909 0.372677 0.319668 0.273840 0.234276 0.200164 0.170796 0.145544 0.123863 0.105273 0.089355 0.075744 0.064122 0.054211 0.045771 0.038594 0.032499 0.027330 0.022953 0.019251 0.016124 0.013487 0.011267 0.009399 0.007830 0.006515 0.005413 0.004491 0.003722 0.003080 0.002545 0.002100 0.001731 0.001424 0.001171 0.000961 0.000787 0.000644 0.000527 0.000430 0.000350 0.000285 0.000232 0.000188 0.000152 0.000123 0.000100 0.000080 0.000065 0.000052 0.000042 0.000034 0.000027 0.000022 0.000017 0.000014 0.000011 0.000009 0.000007 0.000005 0.000004 0.000003 0.000002 0.000002 0.000001 0.000001 0.000000 -0.000000 -0.000000 -0.000001 -0.000001 -0.000002 -0.000003 -0.000003 -0.000004 -0.000005 -0.000007 -0.000009 -0.000011 -0.000013 -0.000017 -0.000021 -0.000026 -0.000032 -0.000039 -0.000049 -0.000060 -0.000074 -0.000091 -0.000112 -0.000138 -0.000169 -0.000207 -0.000252 -0.000308 -0.000375 -0.000457 -0.000555 -0.000673 -0.000816 -0.000987 -0.001193 -0.001440 -0.001734 -0.002087 -0.002507 -0.003008 -0.003604 -0.004313 -0.005152 -0.006147 -0.007324 -0.008713 -0.010351 -0.012280 -0.014548 -0.017211 -0.020332 -0.023985 -0.028255 -0.033238 -0.039044 -0.045801 -0.053650 -0.062757 -0.073305 -0.085507 -0.099598 -0.115847 -0.134558 -0.156071 -0.180768 -0.209077 -0.241479 -0.278509 -0.320764 -0.368909 -0.423681 -0.485900 -0.556470 -0.636390 -0.726761 -0.828795 -0.943821 -1.073295 -1.218808 -1.382096 -1.565051 -1.769724 -1.998340 -2.253307 -2.537220 -2.852876 -3.203277 -3.591643 -4.021413 -4.496258 -5.020081 -5.597025 -6.231473 -6.928054 -7.691636 -8.527335 -9.440498 -10.436709 -11.521775 -12.701713 -13.982742 -15.371264 -16.873845 -18.497190 -20.248123 -22.133553 -24.160441 -26.335767 -28.666484 -31.159460 -33.821384 -36.658569 -39.676389 -42.877610 -46.257118 -49.785534 -53.362399 -56.709008 -59.370108 -60.711759 -61.055714 -61.623423 -65.187313 -71.687613 -77.980148 -84.261466 -90.690720 -97.304961 -104.111605 -111.108244 -118.288769 -125.645183 -133.168150 -140.847157 -148.670573 -156.625682 -164.698718 -172.874915 -181.138566 -189.473097 -197.861163 -206.284747 -214.725279 -223.163769 -231.580945 -239.957412 -248.273818 -256.511042 -264.650401 -272.673890 -280.564463 -288.306353 -295.885421 -303.289482 -310.508488 -317.534332 -324.359912 -330.976964 -337.372235 -343.521986 -349.386034 -354.904531 -360.002848 -364.610170 -368.693474 -372.309694 -375.687117 -379.414833 -384.669018 -393.407197 -409.464343 -476.379835 -481.899150 -390.144786 -422.304139 -524.221548 -591.732190 -656.870015 -453.880017 -299.566460 -343.122942 -450.079086 -449.882578 -430.307570 -501.964097 -478.348466 -426.211796 -442.370825 73.371681 360.435086 324.418267 -336.907446 -1208.145917 -1473.601469 -1342.353205 -917.791655 -345.115517 -549.305704 -2009.221464 -3143.876037 -2986.397286 -3024.016660 -2931.404896 -1403.751059 2208.586327 2622.439164 1042.575281 108.950153 -478.802726 -202.796580 359.726509 1469.126175 2635.294473 4189.039656 6633.541695 8657.764689 10292.978247 10700.784762 11044.654625 11196.517821 10296.220195 8925.524202 -61.257423 -62.812222 -66.589479 -72.144008 -78.097345 -84.290008 -90.692928 -97.299401 -104.103883 -111.100103 -118.280777 -125.637549 -133.160974 -140.840504 -148.664497 -156.620232 -164.693941 -172.870854 -181.135260 -189.470583 -197.859472 -206.283904 -214.725304 -223.164675 -231.582738 -239.960091 -248.277373 -256.515453 -264.655638 -272.679910 -280.571209 -288.313750 -295.893378 -303.297900 -310.517270 -317.543420 -324.369342 -330.986944 -337.383233 -343.534774 -349.401590 -354.923681 -360.025663 -364.635348 -368.718030 -372.327385 -375.687376 -379.363693 -384.539782 -393.173665 -407.456775 -441.600722 -496.279710 -488.032765 -420.519257 -427.436700 -497.449125 -505.654753 -450.759742 -405.118704 -408.705219 -499.370296 -543.935738 -423.714198 -267.187040 -195.946203 -238.909159 -388.090182 -292.411028 -12.983637 -77.471100 -589.788535 -1000.351467 -1202.295821 -1311.555717 -1240.014926 -1227.220661 -1767.673905 -2539.752646 -2782.102126 -2678.195742 -2663.941809 -2468.881416 -1395.621380 650.456937 1422.640731 370.318878 -119.169709 345.613122 588.261262 1077.832392 1888.364209 2659.874041 4039.044907 6135.975410 8114.980326 9154.670279 9536.442449 9985.633653 9938.616675 9406.945163 8438.461150 7631.299157 -61.055714 -61.620984 -63.606696 -67.462014 -72.493266 -78.222499 -84.336081 -90.713611 -97.311988 -104.113762 -111.108906 -118.288972 -125.645245 -133.168169 -140.847163 -148.670575 -156.625683 -164.698718 -172.874915 -181.138566 -189.473097 -197.861163 -206.284747 -214.725279 -223.163769 -231.580945 -239.957412 -248.273818 -256.511042 -264.650401 -272.673890 -280.564463 -288.306353 -295.885421 -303.289482 -310.508488 -317.534332 -324.359912 -330.976964 -337.372233 -343.521982 -349.386030 -354.904543 -360.003031 -364.611160 -368.696880 -372.317736 -375.705936 -379.436765 -384.713848 -393.480621 -407.617058 -428.238320 -453.968467 -468.197222 -464.736570 -475.763405 -493.895103 -480.357926 -460.223702 -448.956698 -458.989361 -493.265508 -505.337724 -460.358946 -373.549882 -283.161998 -195.977969 -85.877594 52.642812 151.235656 5.203206 -390.586217 -766.438516 -1038.163932 -1244.576358 -1398.629096 -1613.148302 -2012.299848 -2427.060337 -2586.215831 -2521.474226 -2362.721807 -2048.755641 -1296.821639 -238.693498 502.361901 597.379630 617.240597 768.953547 937.620481 1556.240774 2418.205554 3282.749557 4544.995000 6101.544557 7680.100353 8878.749958 9662.751400 10188.645413 10269.632833 9642.734180 8366.278879 7404.767062 7029.506868 8832.064500 3769.592568 14728.759389 10078.813324 4743.148948 121.103926 10619.145223 8257.000079 11991.319102 240.499197 2217.004375 11957.752849 5640.728786 8123.686217 12480.264741 6230.823208 11746.655534 11173.456318 13400.154000 11959.982416 7184.801525 3182.536888 8679.444483 11680.705004 11654.192438 6515.306856 10386.883410 7140.763882 9824.470237 11491.603743 8886.038754 10199.570275 11866.678088 11023.570467 9416.540746 12420.512757 8693.180155 13864.610254 13467.783265 13612.299622 6848.315143 51.786265 9385.186694 13767.727286 9189.484603 13091.273136 37916.135909 10802.521955 14088.904088 5343.092419 13126.876466 3981.607557 10854.380158 11241.388195 11855.472961 12834.913279 13800.751790 14411.431451 12965.214119 12727.692066 -487.165741 9679.629577 -2411.702008 9573.968404 14093.055720 8759.054445 9171.897637 10664.635072 14641.866830 10982.123735 13220.598116 3279.520853 10529.517473 12072.707132 11457.140769 12685.001759 12758.631721 13401.024908 14519.805527 13539.719360 -12354.710334 574.677249 4327.370354 10410.272203 5283.026208 12875.521337 88362.951281 -15345.759467 8637.011680 2422.168175 12585.146417 8656.905028 -406.920787 3705.448865 4949.979253 13226.230584 14990.794042 -5125.912628 13492.567993 12608.616443 4314.037495 13382.569806 17543.685306 10966.624514 9029.303096 5106.643036 8626.108121 69407.031723 8893.432606 10229.031104 5325.136205 8820.438852 11983.862137 8581.935177 5324.430710 13311.540946 12824.880699 11247.780426 9960.736017 9600.229990 16327.888587 15554.215462 6242.762022 10068.111094 12870.153003 -6947.009004 11451.434676 7498.266112 43875.620970 51802.936109 5851.050090 9941.922943 9860.334382 10102.608836 55539.663497 91319.119981 8816.196592 12583.599916 14640.902753 11300.113964 48443.132204 504.077214 101859.525426 9654.148982 8107.073028 4499.431480 29920.836169 8177.905952 8841.285621 -147.842916 11343.326266 8623.318957 8733.742144 88781.679291 6006.471980 9947.454370 82072.212936 9505.866460 -3589.745072 11504.238821 9251.759820 7203.564439 7528.036956 80155.481812 38988.407492 2291.389685 10193.373324 23642.417347 10332.761512 5727.558309 79394.295098 7437.718208 5613.628802 -1241.916814 9901.600138 -7687.486313 7660.025895 9391.029269 12154.191482 12337.944959 -15207.768658 9931.385332 4742.805674 10732.979433 9735.773648 47056.081626 60084.586468 -1622.141545 7049.795972 10451.862508 12519.905539 -9335.817504 11250.202751 70098.510995 7466.803327 -1989.811688 -13190.693379 4758.080394 10661.311515 8614.299273 462.954957 10060.526210 13733.737619 7237.556938 5862.062337 8107.861454 -3314.759191 8883.310277 -6322.229774 36266.197472 9612.416825 9554.794102 12138.550664 11507.351045 9284.150336 44646.998219 11862.775243 2969.452936 9044.522295 11358.775263 8081.664249 32311.223201 57944.193366 9327.313409 3484.340195 6362.781762 9341.176058 13649.807190 9514.509766 11399.842274 10201.251238 19212.385999 7316.781784 7362.396792 11015.714610 7401.817061 -7330.860744 5799.380028 8363.959797 -15852.915780 70267.849663 10808.051028 8034.459869 8635.901306 -245.262323 63719.725787 10592.827579 10550.909454 9630.120316 8474.264233 8263.436544 8212.666283 8273.352029 9234.882267 9414.308973 8898.265865 -16325.278011 11051.844137 10851.687818 9961.575811 6116.559751 7707.336080 7900.171425 9275.043934 10844.920268 10743.135631 10715.715935 6913.389649 8525.990145 11303.384840 11686.982197 9275.022526 9679.811960 10011.769176 10303.679935 5945.192997 10229.138848 11757.930636 -15424.866466 1524.645131 8162.281210 9482.850487 7421.256006 8956.825121 10254.658926 5914.796306 10730.872501 7380.843574 9482.759478 7773.816271 8565.930708 7186.858004 7205.776478 9579.744409 6288.584329 9626.554173 11938.938115 10906.193939 10227.092494 11120.809665 8029.638624 9887.219740 1487.920829 52149.592509 8872.417685 7306.342912 9193.312514 7661.762684 8843.155472 9201.398964 10000.812772 10763.649328 -13115.330179 6751.367434 7869.485033 7244.034965 11546.849842 7886.394174 8967.812195 11333.877611 6408.534909 9722.851052 12926.414957 7957.747420 8781.821285 4014.472504 7566.022324 7452.203050 10277.174693 8343.313227 11938.661727 10738.391111 12386.164927 8977.668517 8816.162404 10930.798270 8333.805959 -11339.263238 65618.817583 3590.753980 10190.012061 9833.150274 4629.638730 5908.359475 5461.217927 8604.167468 13540.634395 11346.903223 10793.744144 9168.056081 8080.143066 11029.073381 9560.791596 13798.848728 11597.525736 11156.328860 9105.098518 13201.266529 10433.478587 26568.752768 12725.429184 13318.783953 8051.919425 13419.119477 13880.990676 11943.798442 11276.425290 14534.316474 10687.608875 8197.046864 9012.798819 14378.585813 11071.894323 13126.433711 11130.797564 8353.553298 12223.476402 10894.153133 10542.833217 8481.420735 12452.594384 7955.051058 11543.168618 14303.888170 13030.777242 10086.968277 11995.824996 9309.191019 7244.850855 14073.804620 18434.035652 14332.955062 14295.910076 11716.045274 12954.858624 13504.602832 11122.050445 9214.791798 40097.498265 3433.142010 10896.072353 7733.141624 14672.988821 10292.601185 8339.207954 14154.444597 14579.937104 9672.762926 9852.479551 11052.309105 14488.393551 9078.328310 15400.572724 8756.222367 15817.857831 13187.952438 11447.721357 10814.327694 12648.359528 8955.620316 15673.291914 10086.144703 12452.882907 6250.749467 7494.499814 10473.056544 12262.573865 11260.707844 12912.449837 9858.909357 12062.156707 15016.692434 10308.601158 17035.765342 14346.497448 11046.492705 11817.702568 11303.598669 10948.716584 4335.056033 12370.984708 6947.216277 8914.397532 7555.985712 9036.309255 8196.954158 8034.010100 14552.461031 6341.098585 8504.618330 16216.965946 9194.703567 14445.225576 16909.161304 14269.877790 14207.308166 12576.423386 11882.440694 7914.861949 10813.565010 14725.707126 10335.275829 9294.593698 6703.809652 10462.963571 6378.853405 10939.561203 14827.877926 17104.284733 8232.128644 10808.491269 10263.025187 15630.035547 14941.875367 15677.277721 14378.272283 9339.412181 17521.893156 9779.094637 9476.416319 10844.756350 18727.314025 10637.091784 10010.801645 16591.083939 7767.794134 17818.788339 11219.751559 13180.295853 16550.243461 14528.873811 13602.586472 16177.467119 12067.472113 16230.570449 13478.281573 14422.769423 15375.423404 9335.890165 11584.964947 9707.248547 15506.977037 16263.727164 14450.037513 11931.552881 15387.743224 12707.427316 18806.757369 11114.175424 19682.366023 17873.493245 14262.537414 17846.620930 18051.316689 14915.258902 11927.644271 19759.635274 10819.308807 9765.968785 10565.964983 20222.253911 17162.241505 9824.399519 16176.901957 7783.505681 14044.472506 14264.055535 9616.201748 15948.916130 18115.381614 16741.623936 12947.922583 15638.745743 19078.099709 12071.706855 11010.416017 20625.912676 12322.272452 8149.450514 8651.992296 10477.412665 8191.795233 11030.890008 10381.383185 8245.725466 8815.410921 14033.521144 13138.850301 17532.353356 15623.948039 16597.890189 13638.983895 11395.787852 17470.245869 19890.243932 14004.107016 11910.916293 18258.742780 11101.604509 13821.757113 6740.981548 7412.837889 5218.242954 12433.549217 15306.437906 11994.040668 12682.597812 13313.135761 7885.454028 18737.451856 11305.777977 18265.568966 20776.196251 16597.716514 18664.593471 19805.170399 20488.928900 15199.079976 19606.238687 15572.598115 1164.155645 7273.626075 3092.322812 8250.997426 12584.551545 15043.221461 9237.773783 12835.829205 9845.987663 10755.453901 15007.881113 16470.308982 10641.632552 15262.738896 14148.143037 18499.211492 17930.108994 13735.307956 14605.835094 11585.771753 869.551425 2048.464378 2749.133079 6015.967110 2728.905869 9056.476202 11111.624979 16620.383159 8357.545845 11363.669311 9664.801500 9880.208741 12629.220958 12090.500882 16192.262549 20018.925348 12961.501515 18489.246779 8362.613443 14219.187970 1072.133125 1762.265299 2655.435697 557.904046 12089.539492 5456.442654 8940.432121 8146.192865 8833.508989 11346.330036 6951.390829 11105.387418 9430.398976 16144.953640 12151.968896 18581.774698 15846.541504 15449.235251 11736.783425 11131.402654 1290.373771 671.922123 2244.179527 2070.944804 3152.130330 6104.015123 6709.636448 8337.382178 8701.784629 8961.547612 6849.444108 10427.475938 18973.969277 10955.341807 12620.569338 16168.540006 14006.652269 12469.194195 10559.683361 12153.925735 1400.462086 1928.361913 4490.001784 1044.599613 3101.875589 8031.663544 4709.901408 6164.765269 8211.980394 6593.173344 10858.463224 10802.519554 9496.949738 9266.877430 14215.660811 12995.969956 13569.779691 17477.824955 11244.562675 11132.896640 761.784104 909.544985 1717.948923 1716.398162 5068.529526 4827.487420 6054.107997 9472.333434 7716.466743 10104.668104 10628.698588 12349.724988 12196.324746 14686.807385 14996.196238 19657.660313 14376.295600 16584.786381 13903.462981 13929.062668 -1123.960236 3055.878694 3204.483290 2455.756328 2809.