<VTKFile type="PolyData">
<PolyData>
<Piece NumberOfPoints="6715" NumberOfVerts="6715" NumberOfLines="0" NumberOfStrips="0" NumberOfPolys="0">
<PointData>
<DataArray type="Float64" Name="Pressure" format="ascii">
 18408.823885 17429.363071 16319.403822 16021.223236 16213.751533 16536.871320 16817.029095 16846.730355 16691.207529 16209.402836 15558.873596 15273.303579 14517.876109 11889.811457 9225.129366 9529.991987 10463.882918 12709.239963 12852.337528 12898.240829 13701.176043 15230.969078 16827.968680 17244.304445 16796.049831 16170.946241 15836.511205 15688.023396 15819.257612 16103.826977 16436.235484 17019.036807 17584.901489 17985.639851 18182.749668 18623.461407 19683.811941 20245.165809 19440.243879 18428.913262 18696.283415 20429.412423 22826.812720 24047.655644 23670.311497 22308.261109 21526.531631 20944.168262 19707.460807 18544.566128 18752.813148 20088.131944 21794.613203 22397.603153 22082.327140 21528.098952 21292.650960 21375.349640 21891.713014 23571.071658 26315.204742 28036.384316 28490.555147 28118.847893 27375.934319 26381.266023 25589.220488 25769.183857 27153.767401 29130.723886 30370.481062 30271.605688 29672.852632 29304.106403 29964.358078 31531.732394 33264.419957 33422.773244 31957.649882 30433.701122 29283.961920 28002.001380 25812.039886 23667.304413 23343.937817 25570.533238 28982.761443 30636.514479 31034.032569 30877.319007 29895.241399 28428.738567 27198.017763 26489.098639 26541.525236 26752.429011 26726.199391 26190.844523 25536.218187 25196.949544 24943.414908 24723.314901 24597.099563 24828.406933 25272.512045 25332.953754 24672.250980 23950.668129 23747.047376 24009.992203 24005.943220 23686.254021 23558.630485 23495.653984 23475.609559 23515.260764 23845.077089 24292.959103 24399.984485 23782.849679 22751.915760 21785.942427 21230.452076 20944.784507 20822.494329 20930.050747 21006.311625 21011.948434 21334.154598 21877.056787 22479.139421 22743.712120 22368.086420 21667.955853 21294.227742 21495.312492 22254.825388 22958.979581 23382.816499 23425.715958 23511.855787 23734.775122 23972.513886 24195.219923 24212.123210 24149.423043 24044.513883 23873.275683 23641.377322 23372.216897 23234.495910 23300.386906 23369.135734 23396.103840 23491.623582 23705.783295 23941.738057 24155.537026 24288.453350 24331.308231 24079.342238 23611.552114 23076.754483 22485.297122 21977.541503 21655.327958 21671.269990 22038.286512 22449.161259 22618.806176 22475.132895 22186.845078 21827.071550 21626.848901 21472.180338 21359.597434 21335.563685 21423.433033 21577.051346 21689.869350 21699.088812 21654.993927 21760.448938 21974.954586 22124.546121 22074.256095 21848.573813 21608.398164 21508.381276 21734.789404 22117.901325 22326.429412 22286.665324 22117.285568 21966.204248 21926.891429 21995.597818 22070.698081 21881.813483 21014.281669 20003.326272 20346.788951 19572.374669 18731.160060 17969.135548 17521.642485 17394.819510 17369.503310 17326.049981 17188.919437 16882.301687 16462.257470 15988.493436 15968.888654 16464.919507 16567.824851 16158.571804 15819.813363 16153.457395 16038.913518 15426.030883 15453.982985 16029.682315 16960.948620 17749.149628 17830.118149 17389.809194 16828.381018 16418.614583 16267.723420 16404.675665 16621.356047 16967.005869 17544.195718 18214.745732 18772.620612 19089.852287 19546.315789 20280.241646 20526.067506 19832.274699 19022.631812 19229.314914 20623.926723 22402.536978 23342.759682 22961.089106 21934.183720 20978.363930 20141.776147 19315.539781 18708.534043 19129.801269 20375.014484 21759.381072 22569.877941 22755.788446 22789.231044 22849.894389 22957.275784 23350.902078 24515.182463 26317.295110 27780.484783 28357.925894 28229.532170 27721.314110 27074.004472 26635.542973 26877.212380 27900.331457 29228.114744 30086.868998 30143.262606 29891.831358 29895.160710 30497.308416 31691.357444 32737.373334 32643.981571 31563.491263 30343.979242 29465.585497 28634.447955 27264.270624 25808.607187 25558.292303 27047.332089 29085.012219 30292.957673 30540.158860 30165.634003 29275.571648 28093.802063 27119.778280 26686.582544 26777.228404 27025.275174 26997.488029 26710.129161 26380.708469 26171.899806 26008.255110 25735.428181 25527.408495 25634.880000 25870.493047 25738.978066 25082.863467 24455.254312 24325.540486 24541.069017 24617.825659 24423.352636 24233.205325 24157.429599 24183.984348 24336.818982 24708.813993 25100.372726 25080.228494 24416.003092 23396.166854 22515.440679 22005.272814 21745.140708 21648.904445 21659.942583 21670.505042 21684.944140 21814.429301 22277.724189 22954.664751 23235.252389 22967.521721 22444.388867 22129.922288 22252.212317 22789.401097 23389.191303 23835.177734 24059.420035 24189.783401 24355.536691 24512.851192 24556.081598 24507.476398 24378.594620 24210.183985 24065.778375 23920.200816 23743.982516 23600.222441 23545.993414 23564.017400 23627.706164 23780.053871 24014.374590 24179.206785 24236.869343 24274.278279 24215.810797 23945.678956 23494.547576 22924.698180 22359.924438 21897.403401 21630.010647 21678.718126 21977.765952 22288.772298 22432.994763 22313.781264 22029.532318 21751.652538 21572.440830 21469.051248 21417.953653 21430.725373 21473.413318 21517.869520 21550.061564 21585.910726 21657.452223 21785.875184 21937.123884 22010.414830 21969.794573 21881.670254 21770.501879 21731.448565 21838.770762 22010.079091 22074.198053 21981.178729 21798.619464 21623.329894 21495.230310 21440.816381 21359.407918 21033.097974 20290.258103 19467.740840 18900.268864 21128.982575 20822.393176 20137.121203 19333.959620 18674.456254 18238.388747 17956.367431 17744.851373 17590.967441 17369.462946 17004.337274 16685.775447 16534.972739 16558.545922 16812.900856 16990.930804 17170.437969 17486.415901 17797.989840 17515.641881 16986.757010 16736.917904 16921.924969 17360.939006 17712.372162 17682.059493 17336.991548 16919.153563 16605.117603 16554.731730 16720.558991 16930.236236 17218.110350 17760.096161 18522.875366 19221.245702 19695.615994 20099.485142 20501.441673 20542.216182 20003.616638 19443.179832 19638.341154 20737.976311 22079.384781 22795.923161 22480.256939 21547.135378 20639.470794 19909.294589 19312.534886 19047.049046 19553.842107 20629.864177 21725.917463 22476.945573 22906.584698 23264.139994 23560.888191 23781.037737 24167.798970 25056.142981 26319.005455 27426.692633 28005.018265 28053.940925 27776.431515 27423.549937 27278.756989 27564.878970 28332.348371 29237.906221 29852.032346 30005.419012 29948.750497 30078.779855 30642.360390 31555.926035 32238.013168 32089.179999 31230.863190 30258.779123 29562.686014 28962.915009 28111.551587 27207.065813 27003.999599 27880.447811 29198.667742 30066.444868 30230.110544 29819.524227 29032.722749 28050.887792 27237.890639 26914.344095 26958.775163 27101.443165 27094.731186 26917.565049 26728.586453 26630.164792 26537.174602 26316.161873 26088.438701 26082.132042 26208.358068 26047.138855 25471.314039 24912.951988 24783.812501 24947.837090 25029.117403 24889.693658 24679.437375 24576.517542 24596.482025 24766.265450 25104.102355 25409.224351 25314.532557 24685.635188 23796.700294 23063.169829 22618.276592 22342.645103 22199.197824 22168.297676 22097.376616 22023.933475 22174.761440 22639.661993 23228.087037 23530.814794 23386.010940 22969.938173 22677.241829 22770.622948 23174.257743 23633.140102 24025.372065 24329.015130 24540.489305 24661.682050 24721.930768 24747.093611 24700.498256 24536.146905 24334.946402 24182.543875 24049.102693 23908.658265 23774.122514 23685.251252 23649.244909 23704.647864 23890.106789 24116.945852 24231.465305 24197.082584 24123.047722 24011.858061 23754.189018 23312.161458 22775.160008 22260.423894 21848.020079 21625.189756 21662.361584 21893.138961 22127.441732 22206.537487 22112.178595 21904.691419 21673.616457 21500.247454 21432.052210 21438.227245 21470.335964 21476.621129 21461.548509 21462.697845 21508.109052 21622.680905 21767.120299 21862.998800 21881.046115 21874.590511 21870.149151 21827.613899 21825.623882 21916.068901 22007.990108 22001.066074 21890.308623 21710.468466 21493.603879 21302.003008 21180.272721 21016.956781 20627.344457 19972.887704 19227.409515 18700.034997 18495.442108 20003.326272 20739.707952 21086.489369 20639.649581 19863.776000 19201.061405 18588.559213 17711.089611 16694.326586 15924.006977 15229.769763 14142.571941 12704.755736 11139.321531 9874.353036 8736.958506 7281.297803 5716.065100 4958.478201 4428.940850 3776.195543 2721.199106 1953.962612 1469.264650 1145.493627 920.331750 763.222261 654.178771 577.705750 521.888561 478.076084 440.442510 405.428569 371.160006 336.923048 302.733567 269.007006 236.321204 205.258451 176.311232 149.836205 126.042228 105.000293 86.665704 70.905328 57.525022 46.294264 36.966482 29.294642 23.042307 17.990786 13.943133 10.725762 8.188374 6.202780 4.661063 3.473411 2.565858 1.878073 1.361296 0.976468 0.692576 0.485210 0.335329 0.228214 0.152593 0.099918 0.063772 0.039386 0.023257 0.012840 0.006311 0.002378 0.000139 -0.001023 -0.001525 -0.001643 -0.001552 -0.001363 -0.001140 -0.000922 -0.000726 -0.000559 -0.000423 -0.000315 -0.000231 -0.000167 -0.000120 -0.000085 -0.000059 -0.000041 -0.000028 -0.000019 -0.000013 -0.000009 -0.000006 -0.000004 -0.000002 -0.000001 -0.000001 -0.000000 18900.268864 19325.354233 19815.037780 20025.016927 19752.029561 19211.869266 18665.220077 18050.911522 17244.556014 16337.192126 15521.374316 14707.262267 13611.157643 12204.108973 10760.348849 9545.566519 8387.298474 7067.318878 5759.695783 4793.189476 4058.976124 3308.360424 2527.422701 1900.084323 1453.778827 1139.445779 916.864030 760.953714 652.696667 576.787526 521.367247 477.816772 440.340298 405.406812 371.166616 336.925705 302.714932 268.960419 236.247059 205.161296 176.197585 149.713022 125.915923 104.876204 86.547883 70.796546 57.426909 46.207517 36.891089 29.230088 22.987756 17.945227 13.905488 10.694959 8.163399 6.182706 4.645064 3.460765 2.555945 1.870366 1.355354 0.971927 0.689136 0.482629 0.333411 0.226803 0.151567 0.099180 0.063248 0.039019 0.023003 0.012668 0.006196 0.002303 0.000092 -0.001052 -0.001542 -0.001652 -0.001556 -0.001364 -0.001140 -0.000921 -0.000724 -0.000557 -0.000421 -0.000313 -0.000230 -0.000166 -0.000119 -0.000084 -0.000059 -0.000041 -0.000028 -0.000019 -0.000013 -0.000009 -0.000006 -0.000004 -0.000002 -0.000001 -0.000001 -0.000000 -0.000000 18495.442108 18644.117155 18976.462099 19346.470534 19499.192967 19306.333411 18877.989782 18366.211814 17754.554657 16991.930699 16144.712223 15296.350867 14384.110696 13257.196906 11916.691388 10563.958158 9332.711004 8146.613823 6911.336841 5709.973568 4691.369401 3855.156723 3106.623088 2429.280415 1872.872224 1450.987918 1141.585627 919.363072 762.952479 654.098935 577.680639 521.880313 478.073289 440.441578 405.428267 371.159913 336.923021 302.733560 269.007004 236.321203 205.258451 176.311232 149.836205 126.042228 105.000293 86.665704 70.905328 57.525022 46.294264 36.966482 29.294642 23.042307 17.990786 13.943133 10.725762 8.188374 6.202780 4.661063 3.473411 2.565858 1.878073 1.361296 0.976468 0.692576 0.485210 0.335329 0.228214 0.152593 0.099918 0.063772 0.039386 0.023257 0.012840 0.006311 0.002378 0.000139 -0.001023 -0.001525 -0.001643 -0.001552 -0.001363 -0.001140 -0.000922 -0.000726 -0.000559 -0.000423 -0.000315 -0.000231 -0.000167 -0.000120 -0.000085 -0.000059 -0.000041 -0.000028 -0.000019 -0.000013 -0.000009 -0.000006 -0.000004 -0.000002 -0.000001 -0.000001 -0.000000 -0.000000 -0.000000 -0.000000 -0.000000 -0.000000 -0.000000 -0.000000 -0.000000 -0.000000 -0.000000 -0.000000 -0.000000 -0.000000 -0.000000 -0.000000 -0.000000 -0.000000 0.000000 0.000000 0.000000 0.000000 0.000000 0.000000 0.000000 0.000000 0.000000 0.000000 0.000000 0.000000 0.000000 -0.000000 -0.000000 -0.000000 -0.000000 0.000000 0.000000 0.000000 -0.000000 -0.000000 0.000000 0.000000 0.000000 -0.000000 -0.000000 0.000000 -0.000000 0.000000 0.000000 0.000000 0.000000 0.000000 0.000000 0.000000 0.000000 0.000000 0.000000 0.000000 0.000000 0.000000 0.000000 0.000000 0.000000 0.000000 0.000000 0.000000 0.000000 0.000000 0.000000 0.000000 0.000000 -0.000000 0.000000 0.000000 0.000000 0.000000 0.000000 0.000000 0.000000 0.000000 0.000000 0.000000 0.000000 0.000000 0.000000 -0.000000 0.000000 0.000000 0.000000 0.000000 0.000000 0.000000 0.000000 0.000000 0.000000 0.000000 0.000000 0.000000 0.000000 0.000000 0.000000 -0.000000 0.000000 0.000000 -0.000000 0.000000 0.000000 0.000000 0.000000 -0.000000 -0.000000 -0.000000 -0.000000 -0.000000 -0.000000 -0.000000 -0.000000 -0.000000 -0.000000 -0.000000 -0.000000 -0.000000 -0.000000 -0.000000 -0.000000 -0.000000 -0.000000 -0.000000 -0.000000 -0.000000 -0.000000 -0.000000 0.000000 -0.000000 -0.000000 -0.000000 -0.000000 0.000000 0.000000 0.000000 -0.000000 0.000000 0.000000 0.000000 0.000000 -0.000000 0.000000 0.000000 0.000000 0.000000 0.000000 0.000000 0.000000 0.000000 0.000000 0.000000 -0.000000 -0.000000 -0.000000 -0.000000 -0.000000 -0.000000 -0.000000 -0.000000 -0.000000 -0.000000 -0.000000 -0.000000 -0.000000 -0.000000 -0.000000 -0.000000 -0.000001 -0.000001 -0.000002 -0.000003 -0.000005 -0.000008 -0.000013 -0.000020 -0.000032 -0.000051 -0.000079 -0.000123 -0.000190 -0.000291 -0.000444 -0.000673 -0.001013 -0.001517 -0.002257 -0.003338 -0.004908 -0.007175 -0.010425 -0.015061 -0.021633 -0.030909 -0.043963 -0.062376 -0.088715 -0.128223 -0.191401 -0.237538 -0.000000 -0.000000 -0.000000 -0.000000 -0.000000 -0.000000 -0.000000 -0.000000 -0.000000 -0.000000 -0.000000 -0.000000 -0.000000 -0.000000 -0.000000 -0.000000 0.000000 -0.000000 0.000000 0.000000 0.000000 0.000000 0.000000 0.000000 0.000000 0.000000 0.000000 0.000000 0.000000 0.000000 0.000000 -0.000000 0.000000 0.000000 -0.000000 0.000000 0.000000 0.000000 0.000000 -0.000000 0.000000 0.000000 0.000000 0.000000 -0.000000 0.000000 0.000000 0.000000 0.000000 0.000000 0.000000 0.000000 0.000000 0.000000 0.000000 0.000000 0.000000 0.000000 0.000000 0.000000 0.000000 0.000000 0.000000 0.000000 0.000000 0.000000 0.000000 0.000000 0.000000 0.000000 -0.000000 0.000000 -0.000000 0.000000 0.000000 -0.000000 0.000000 0.000000 0.000000 -0.000000 -0.000000 0.000000 0.000000 -0.000000 -0.000000 0.000000 0.000000 0.000000 -0.000000 0.000000 0.000000 0.000000 0.000000 -0.000000 0.000000 0.000000 0.000000 0.000000 -0.000000 -0.000000 0.000000 0.000000 0.000000 -0.000000 0.000000 0.000000 0.000000 0.000000 -0.000000 -0.000000 -0.000000 -0.000000 -0.000000 -0.000000 -0.000000 -0.000000 -0.000000 -0.000000 -0.000000 -0.000000 -0.000000 -0.000000 -0.000000 -0.000000 -0.000000 -0.000000 -0.000000 -0.000000 0.000000 -0.000000 -0.000000 -0.000000 -0.000000 0.000000 -0.000000 0.000000 0.000000 -0.000000 -0.000000 0.000000 0.000000 0.000000 -0.000000 -0.000000 0.000000 0.000000 0.000000 -0.000000 -0.000000 0.000000 0.000000 0.000000 0.000000 -0.000000 -0.000000 -0.000000 -0.000000 -0.000000 -0.000000 -0.000000 -0.000000 -0.000000 -0.000000 -0.000000 -0.000000 -0.000000 -0.000000 -0.000000 -0.000000 -0.000000 -0.000001 -0.000001 -0.000002 -0.000003 -0.000005 -0.000008 -0.000013 -0.000020 -0.000032 -0.000050 -0.000079 -0.000122 -0.000188 -0.000289 -0.000441 -0.000668 -0.001006 -0.001506 -0.002242 -0.003316 -0.004877 -0.007130 -0.010362 -0.014970 -0.021497 -0.030689 -0.043550 -0.061431 -0.086100 -0.119549 -0.161992 -0.194864 -0.204905 -0.000000 -0.000000 -0.000000 -0.000000 -0.000000 -0.000000 -0.000000 -0.000000 -0.000000 -0.000000 -0.000000 -0.000000 -0.000000 -0.000000 -0.000000 -0.000000 0.000000 0.000000 0.000000 0.000000 0.000000 0.000000 0.000000 0.000000 0.000000 0.000000 0.000000 0.000000 0.000000 0.000000 0.000000 0.000000 0.000000 0.000000 0.000000 0.000000 0.000000 0.000000 0.000000 0.000000 0.000000 0.000000 0.000000 0.000000 0.000000 0.000000 0.000000 0.000000 0.000000 0.000000 0.000000 0.000000 0.000000 0.000000 0.000000 0.000000 0.000000 0.000000 0.000000 0.000000 0.000000 0.000000 0.000000 0.000000 0.000000 0.000000 0.000000 0.000000 0.000000 0.000000 -0.000000 0.000000 0.000000 0.000000 0.000000 0.000000 0.000000 0.000000 0.000000 0.000000 0.000000 -0.000000 0.000000 0.000000 -0.000000 0.000000 0.000000 0.000000 0.000000 0.000000 0.000000 0.000000 0.000000 0.000000 -0.000000 0.000000 0.000000 0.000000 0.000000 -0.000000 -0.000000 0.000000 0.000000 0.000000 0.000000 0.000000 0.000000 0.000000 -0.000000 -0.000000 -0.000000 -0.000000 -0.000000 -0.000000 -0.000000 -0.000000 -0.000000 -0.000000 -0.000000 -0.000000 -0.000000 -0.000000 -0.000000 -0.000000 -0.000000 -0.000000 -0.000000 -0.000000 0.000000 0.000000 0.000000 -0.000000 0.000000 0.000000 0.000000 0.000000 0.000000 0.000000 0.000000 -0.000000 -0.000000 -0.000000 0.000000 0.000000 -0.000000 -0.000000 -0.000000 0.000000 0.000000 -0.000000 0.000000 0.000000 0.000000 0.000000 -0.000000 0.000000 -0.000000 -0.000000 -0.000000 -0.000000 -0.000000 -0.000000 -0.000000 -0.000000 -0.000000 -0.000000 -0.000000 -0.000000 -0.000000 -0.000000 -0.000000 -0.000001 -0.000001 -0.000002 -0.000003 -0.000005 -0.000008 -0.000013 -0.000020 -0.000032 -0.000051 -0.000079 -0.000123 -0.000190 -0.000291 -0.000444 -0.000673 -0.001013 -0.001517 -0.002257 -0.003338 -0.004908 -0.007174 -0.010422 -0.015051 -0.021600 -0.030799 -0.043592 -0.061125 -0.084508 -0.113930 -0.146312 -0.174129 -0.186269 -0.187622 -0.237538 -0.355530 -0.600498 -0.886062 -1.234970 -1.675502 -2.236735 -2.952533 -3.863191 -5.016728 -6.470091 -8.290311 -10.555623 -13.356459 -16.796286 -20.992164 -26.074946 -32.188992 -39.491265 -48.149670 -58.340478 -70.244717 -84.043362 -99.911270 -118.009769 -138.477967 -161.422879 -186.908620 -214.945055 -245.476390 -278.370329 -313.408460 -350.278577 -388.569592 -427.769783 -467.269304 -506.368432 -544.293863 -580.226040 -613.340187 -642.861162 -668.127231 -688.652857 -704.182209 -714.740855 -720.712630 -722.933713 -722.494295 -718.155584 -710.796145 -721.737794 -758.380979 -896.041442 -1146.096157 -1170.079677 -916.768096 -599.363006 -319.786871 -371.671506 -864.456210 -1910.056440 -2413.363443 -1871.616846 -630.319641 157.951569 -297.353098 -1434.628670 -2158.744052 -1945.098555 -1117.909341 -816.982308 -1481.081584 -2091.225286 -1890.874609 -880.840743 225.153663 667.837228 933.031538 1186.911043 1480.457460 1959.368826 2567.060672 2984.028740 3023.462801 2982.737238 3187.308566 3744.662578 4651.481147 5814.674768 6808.673026 7462.128930 7734.185954 8099.105254 8902.221106 10246.810634 11478.918757 12119.787309 12581.839731 14048.469780 16664.298999 18408.823885 -0.204905 -0.259233 -0.393656 -0.611909 -0.886437 -1.231785 -1.670328 -2.229830 -2.943742 -3.852202 -5.003147 -6.453459 -8.270118 -10.531308 -13.327426 -16.761909 -20.951806 -26.027982 -32.134836 -39.429405 -48.079707 -58.262177 -70.158056 -83.948598 -99.808994 -117.900969 -138.364084 -161.305848 -186.790904 -214.829644 -245.366780 -278.270468 -313.322664 -350.211407 -388.525710 -427.753762 -467.285371 -506.420111 -544.383463 -580.354004 -613.504398 -643.056458 -668.345423 -688.883233 -704.411697 -714.952421 -720.884808 -723.064846 -722.839499 -720.752479 -715.438973 -717.721100 -746.825891 -823.780913 -943.899902 -953.717223 -759.731146 -521.436031 -462.000863 -694.232976 -1177.649431 -1762.147600 -2081.678508 -1770.780574 -1043.116289 -626.570343 -880.670729 -1550.301684 -2187.659378 -2227.016736 -1732.886914 -1340.744319 -1421.385309 -1665.296514 -1526.060608 -905.106692 -228.547010 186.090653 431.329463 727.202940 1201.113031 1858.628739 2614.293008 3268.088046 3690.033592 3949.125525 4271.327075 4809.166555 5608.818852 6571.438084 7447.201744 8053.852037 8402.988296 8826.832578 9637.164604 10972.470551 12259.914173 13101.896997 13848.282327 15315.851027 17391.123497 19187.707366 20346.788951 -0.187622 -0.208043 -0.278136 -0.419582 -0.623717 -0.892785 -1.236979 -1.676100 -2.236913 -2.952586 -3.863206 -5.016733 -6.470092 -8.290312 -10.555623 -13.356459 -16.796286 -20.992164 -26.074946 -32.188992 -39.491265 -48.149670 -58.340478 -70.244717 -84.043362 -99.911270 -118.009769 -138.477967 -161.422879 -186.908620 -214.945055 -245.476390 -278.370329 -313.408460 -350.278577 -388.569592 -427.769783 -467.269304 -506.368434 -544.293868 -580.226054 -613.340217 -642.861211 -668.127263 -688.652641 -704.180792 -714.735830 -720.704983 -722.970210 -723.024123 -722.656451 -721.926136 -722.237425 -736.332836 -779.229664 -836.642094 -819.645008 -682.742057 -544.742437 -594.392286 -884.195614 -1279.543174 -1642.399011 -1832.306350 -1686.294174 -1274.945491 -1008.117833 -1189.119988 -1699.731427 -2149.607252 -2227.496783 -1935.592943 -1590.443910 -1437.939827 -1406.181092 -1228.758489 -793.502347 -305.321759 14.093901 254.132835 625.044157 1187.476856 1902.603629 2707.861918 3452.420900 4028.904203 4467.666608 4916.312436 5461.155744 6132.451694 6947.981913 7772.386002 8421.864667 8846.775820 9291.132841 10151.357262 11428.597078 12735.350373 13758.781025 14697.481057 16020.409565 17795.190638 19576.751239 20718.252130 21128.982575 4196.712038 2649.837367 3983.597470 2827.624020 3646.931401 2836.510205 5024.559255 5727.468109 6320.465397 6440.598012 7445.541232 6213.685814 5492.029857 8119.733856 9158.341526 10076.517037 10884.607747 12185.152758 11874.001490 16640.262853 3674.364018 2493.764447 2205.669451 3339.600343 4981.305553 4847.017804 2781.130109 5419.976033 4670.047875 8481.700281 5702.164647 7273.385676 10562.719317 8465.464258 7739.074729 11299.766614 11163.382008 12384.909920 12577.570897 14331.819886 10769.752862 3584.087152 2130.789961 2918.269320 4911.517305 6223.170814 4609.574155 5537.439791 4779.858899 6664.775788 6974.615990 7711.567897 4785.819315 10623.349246 12332.136262 14228.023923 11315.253777 12884.703828 13600.190414 15001.463924 4761.770054 7681.979458 29458.144309 5419.969935 11059.198154 2972.100202 6079.688135 6269.566254 6806.187392 11670.401072 11230.216567 15796.186438 7254.091854 8821.449029 14273.165491 12752.780225 12721.663092 14586.923927 13586.768245 15278.278529 -1412.891349 3700.071222 -1629.999331 5052.032732 6307.949618 -1837.898327 102973.126527 -9252.665662 5857.658409 6489.473514 12541.093558 5128.303129 12246.289592 9936.949700 8478.218489 11911.668980 10312.480163 3432.285169 15916.687220 15978.962927 6665.485565 13620.017751 3081.666136 4731.873371 -11828.516245 6490.199379 3499.317654 3285.700394 8399.568439 14633.711711 1227.070319 11202.322589 11055.619384 3467.314867 12694.518452 15833.663472 12501.518131 16132.966240 16566.578933 11604.224807 2794.593440 8675.392709 8778.534531 3840.816391 15397.120532 -6569.948118 4897.276570 3943.169146 9480.370499 -14486.433776 -6583.165465 4647.351687 5159.522738 16266.730103 -7046.969327 -15116.606835 16004.348513 14174.210126 16619.506426 16347.614973 108040.017434 11530.651662 75693.637162 3331.014979 10749.328546 103686.959317 3512.622532 -5193.921304 379.706488 -6551.232923 4233.547773 9591.583952 16683.013381 -7118.920078 86812.512344 16385.661120 -7244.991138 11007.572587 12141.291291 6927.689171 3183.044207 9312.858130 5553.136716 5512.919590 -5571.897112 6226.502585 5037.758169 8563.639603 16782.215619 8738.448492 12935.416061 9456.467612 14177.771826 -5700.302414 -640.656920 -19520.219963 9518.593082 13651.402840 -10875.642470 16383.491060 -24.846413 -2062.550482 5861.584220 13887.914528 3712.533484 96940.790358 14278.409653 3503.559036 2040.426347 3062.659621 59038.223896 21142.846075 8601.237434 -10781.520196 8442.319104 6390.018030 52374.896795 15950.376367 13070.585614 521.551419 57256.189966 -14223.186083 23697.529298 6110.504872 12654.345271 5750.590610 -2858.095467 7121.125756 70435.947800 4087.894047 11706.279990 4918.977690 2357.645174 6563.969921 9685.021430 562.364756 -24810.257552 2011.184745 23279.614072 37633.938957 6049.358614 23635.070242 110379.465335 9991.076956 -8738.595799 8058.704808 4455.317848 3111.524135 13826.611969 3356.076022 2521.037579 33720.684118 6948.155794 8016.855014 10556.737283 5772.433922 11778.128504 3684.921388 4438.232458 10557.567193 6540.832427 9581.995845 3930.359587 9866.845526 -536.032454 106632.512697 -254.636561 4573.973989 -1285.378777 9484.081582 6580.470929 10654.070365 -3149.798025 6182.544515 13560.574565 11125.548289 -8958.727230 11407.739122 14623.184954 13919.723826 3524.913504 10281.934841 6010.206609 -2572.807930 38101.750312 12068.758461 3084.180763 13183.515577 969.677493 4274.008243 -2035.856450 5528.754035 -4306.692678 13357.668436 4081.436279 15434.408917 14161.633525 12924.644725 -25495.439452 12800.453346 3364.966790 7579.090430 6941.212916 7493.207672 6439.665776 5130.813840 9057.782702 9890.594925 2091.680499 5503.401714 13485.741370 8564.572819 13408.233382 13003.201522 10779.584491 15188.674156 11335.161067 12782.206737 10587.567054 12504.430605 5145.348400 7218.344999 1391.900580 42093.122024 10119.200626 7940.132109 7612.044339 6965.761038 10350.146388 7181.182288 10986.230908 10950.756151 -5036.979319 10710.355613 10180.660346 12796.335705 14482.330801 -200.574742 12190.672875 14209.111255 6402.299073 11804.932135 7737.462892 9221.705623 6572.365808 9967.457032 8673.307397 5364.341677 8247.586799 8359.793916 15852.166242 7692.409350 13766.102391 10775.391738 14609.961520 16306.802232 13383.015571 12332.024770 3614.695195 14703.277592 11517.759399 4175.740316 6381.088581 6222.398946 6197.399379 11322.402315 8210.184402 6906.597371 11255.326091 7640.811488 10208.638365 15284.400874 14231.801412 16985.648632 14886.987059 14019.654509 14918.869712 11913.970330 13095.118216 12924.686964 8646.055949 9773.671439 3602.501134 7899.333301 10425.654117 11683.790996 12758.392071 15910.926322 13298.092335 13177.287079 17921.669638 18143.617087 13397.794804 12049.927525 12485.337134 15696.498885 11897.596444 15603.515611 14230.444124 11957.836031 9780.702322 7877.272150 7292.238653 8642.475059 11315.309677 12428.318617 11153.402921 13420.793668 6850.438860 15041.975120 18730.198821 19562.913428 20050.020773 13042.566137 15095.011415 16687.280593 14487.319210 13496.012809 12334.140335 12426.368179 9405.198674 13625.916206 9950.697752 8074.402191 13879.073513 9510.546760 14137.288455 15216.431424 11156.259324 14210.997434 17539.482422 15201.132730 16939.249938 17317.199219 19459.132053 17850.710101 17847.857652 18713.815180 16911.744559 12987.706058 9639.524426 11450.083218 9260.680843 10128.417012 12264.284475 11300.525419 14794.508184 10416.595731 15670.887732 13135.317839 15812.323488 11884.577691 15326.778257 20036.214122 17334.142012 19744.588738 17586.484633 15765.235420 13744.750595 15646.305144 13145.436486 10272.900172 10355.557890 11679.480608 10834.209869 12485.132313 10993.648110 15453.155769 10600.045077 13943.987514 16200.863677 17119.303468 16752.765730 19160.353596 17462.765307 19852.140842 16771.195506 19061.545256 15013.265593 15439.024983 11523.296990 10937.970342 13334.317527 10323.737100 9772.872758 10043.362250 13070.844065 13801.378321 16016.621021 15835.724484 12990.746758 14982.837702 20576.263707 15541.709069 18874.322529 18907.600782 15410.324050 20113.121150 13908.830651 14817.266486 11675.305570 11287.857249 13493.267447 10076.899674 10916.461176 12600.003062 15306.047696 12568.410622 16874.240736 14013.963482 16996.292774 17709.238145 17684.699074 21683.265608 18310.865101 21354.490636 21146.244568 22186.147215 15114.610497 17115.406155 9972.458387 15691.159470 16343.882017 11894.118013 15755.482873 14314.761139 12229.899686 18101.749356 10256.149913 16659.647023 16147.691186 19329.569318 20388.690729 20061.768529 20929.247119 19036.972838 19097.732474 21100.060938 18995.155186 18221.282368 15013.709876 12221.106387 9897.023060 10657.144888 9768.966515 14510.667264 12556.218404 15317.653708 17346.132079 17655.671695 19866.722369 20092.554869 18333.747342 19409.167771 20636.461907 19311.655632 20590.056331 21894.060212 15589.252902 15153.443947 11935.182178 9708.825070 11931.679772 10294.863129 10474.063039 12200.542720 13809.082992 17254.403386 13361.681487 20801.541414 18639.726100 20711.746290 15309.062106 17670.523468 19176.024801 20845.166874 21808.248833 19517.464948 17152.441143 22011.780616 9081.028645 11026.358149 5366.578693 12004.665299 11871.141475 14126.184935 15599.004138 13755.414168 14407.357303 17371.895930 14030.685508 14189.438908 20458.171796 20298.992708 20546.890572 20470.412970 20464.410752 20973.302051 20757.248192 19996.010106 1010.655676 11079.696637 7788.460726 11403.080227 11441.676567 12356.899353 11794.315884 13850.154024 16197.600328 17522.926245 12662.356848 18658.484992 17352.052289 19489.666697 21063.988192 20919.521153 19652.354413 21814.253626 15975.734903 16345.595668 1816.921024 5770.890832 1310.002988 8703.233507 9000.942499 13130.724770 11797.454719 11979.383372 12941.085510 17207.416017 16628.056021 16387.725153 16967.265787 18102.850475 20758.780486 20921.818122 21561.741655 22300.688048 16931.410912 17831.837255 2572.456555 3409.427947 2253.387300 5641.530870 8642.614084 7612.426550 15585.968307 10636.387892 13897.824534 14423.228630 15683.998585 12922.402060 14779.419528 18733.218935 19051.863228 20801.971201 21557.740910 20094.319083 21819.832885 23901.402090 2239.629740 1873.759281 1465.396985 4072.140592 5095.207036 13536.187003 9495.083279 10326.697172 14419.121286 16521.996056 15520.707886 16746.590052 21740.259757 18549.577978 19563.702984 19993.142528 21223.223264 20397.555619 15960.270772 19138.506185 982.950017 5404.734486 3278.522286 3371.365446 5432.575529 12199.863084 10174.063391 14927.308803 14454.326506 13793.491616 15196.838720 17443.061511 15373.282397 17095.774618 20296.689920 19100.514256 20317.906370 20789.829136 18134.570041 17710.773221 1873.118680 1230.299880 1777.325671 4427.311936 5250.737936 11373.016010 8674.774013 8875.615399 16967.969996 16951.202530 17950.921880 19302.550289 15277.690345 20656.092281 21747.762582 22494.596151 19125.677444 19598.186494 20896.313927 20468.238231 1016.500821 1951.394347 1504.727928 6171.871980 6217.165343 8832.101995 9793.936490 10007.740698 11312.486696 14225.586464 16376.290228 17033.865937 19727.330661 17817.962512 18083.376003 22075.821080 19809.563757 20765.070521 20138.244032 19633.572344 -13209.871102