<VTKFile type="PolyData">
<PolyData>
<Piece NumberOfPoints="6715" NumberOfVerts="6715" NumberOfLines="0" NumberOfStrips="0" NumberOfPolys="0">
<PointData>
<DataArray type="Float64" Name="Pressure" format="ascii">
 22398.744293 30171.328522 36489.199445 38982.298359 39063.858273 43604.591964 47876.392829 49614.185467 46296.586728 46465.344694 41746.431866 38830.786894 28195.142224 20790.479035 16676.633102 21947.434695 30963.149328 37819.367480 45523.725090 44425.877612 39617.993410 30977.545299 27079.700184 30269.222628 33636.592780 34071.732527 28889.051087 23576.164758 26863.185866 26471.099142 25842.558339 30833.714764 30803.500331 29164.272569 28614.083445 28301.799118 27493.546637 25371.637603 22711.088320 20249.284923 18478.504061 15686.585969 15081.000465 13431.952088 8551.098145 11228.499999 17040.167651 22348.826938 22315.206861 21635.465936 24938.673580 22481.648632 12437.126431 13051.911930 12016.186682 14496.695967 18907.301446 18513.362892 18415.049534 18642.677511 19460.949277 19249.086209 20374.327059 22505.411203 24311.187318 21669.622802 16799.856757 12469.648677 11706.742698 15282.495205 21771.658054 24886.522754 24249.502619 22613.456378 17216.415096 15574.566947 16386.523035 16840.840471 16630.729840 19166.607161 20401.977613 16131.534228 13664.110796 14739.651303 15157.819534 15299.183879 14791.838987 16535.544888 15602.821931 10712.585179 9389.693711 14498.196943 17173.294947 16032.666898 17233.279088 20464.282200 26179.497902 26277.057370 20779.405556 12811.230106 9624.452210 14475.996045 22059.800555 23576.656071 20461.366969 16436.218756 14623.380789 11558.201493 12175.085699 11178.049803 14581.863551 16719.787964 16010.895148 19315.799277 22346.615401 20609.571025 19007.084181 15954.391104 14370.330358 14099.487406 12802.187078 10658.818088 11800.927593 17907.429849 22093.939981 23216.369646 16424.292010 12171.424829 10271.982696 12825.410013 15529.947278 14158.778583 12852.812057 17119.729366 18691.904238 17520.787514 15895.490348 16367.413339 19182.291574 20877.212279 19126.787893 17525.852771 17311.111159 16791.613824 12841.126540 10729.685503 13203.838844 16779.166232 18320.938647 16508.064388 15742.663788 16668.693917 12989.328663 12730.930371 17709.913519 23076.938120 19177.208938 11503.416688 8998.877430 11645.069162 16642.759425 19822.331772 20182.753270 23010.826437 19401.703539 17611.350233 14171.049580 13130.348118 15798.946905 15912.675933 15440.137640 15561.156325 19128.567685 21442.536655 16097.746309 8925.839698 10312.985911 13603.582109 14684.389683 16981.096212 17885.720641 19400.597809 21050.473783 21222.485443 19291.726930 21744.145143 24875.437722 25937.858108 22905.736529 18202.661354 17300.052703 19208.177971 20787.496413 22525.424427 22091.063004 20057.730699 18776.896199 17487.527901 19532.985762 18557.548796 15412.007878 12424.270793 16464.573663 20948.294540 25292.070265 28400.212445 29259.891323 31770.996797 35920.760738 36226.987086 32748.480053 31477.069485 32335.522629 32374.419773 26529.970072 19368.027580 15636.712231 15797.388219 20527.837431 27764.276239 32847.807814 31263.523799 28151.015571 26841.991426 26506.068383 26847.081951 27171.856669 25008.830016 22135.502966 20719.712661 19868.196187 21640.083909 27050.843105 30301.349602 28148.627073 24778.008988 24518.424506 26276.150831 26105.740810 24446.766259 23501.268385 22167.434873 20305.821567 17903.681904 14880.227944 12304.846075 11321.310839 14006.713874 19436.725864 22589.556730 21746.232295 21203.847346 23013.330337 23810.689387 20996.989582 16648.967707 14104.167214 15885.137773 19369.886446 20262.787663 19173.448010 20365.949352 21767.489549 21368.525424 21363.557614 23078.919588 23898.216339 23040.734602 20985.820061 17038.475692 14362.078466 16784.343307 21091.376643 23026.417115 21724.248059 19407.811028 18632.902157 19184.326792 19280.474486 19268.763142 19066.309534 19247.515646 19389.956908 19545.393920 20072.136102 19754.847648 19050.238946 19165.078692 18597.548042 16394.731305 13998.012681 13459.316552 15434.175862 18715.674669 20114.292803 19114.645274 19099.800176 20706.941057 23115.577055 23723.794955 21140.477784 16746.109762 14809.676647 17456.228499 22111.427031 25143.244328 24502.003251 19949.640865 15270.682479 12980.392402 12968.871255 15731.592520 19233.289809 20312.566563 19830.198524 19335.425034 19656.844192 20121.462508 19214.719373 17845.334439 16796.347354 16194.487965 16762.030417 17695.586388 17969.611479 18061.505013 19528.083950 21726.294560 19633.374140 14883.985884 14431.601731 17439.207899 19073.032362 19041.938884 19752.897637 20770.303403 19841.311669 17728.566738 17226.312703 18980.436289 20507.647388 20594.772599 19976.099370 20081.640631 21223.033973 21815.524010 19644.506386 15979.969949 15279.053499 17926.971161 18993.981614 17991.119638 18330.938834 19818.725392 20299.260321 19523.576162 18453.813912 16994.976964 15988.565108 16110.562233 16921.941060 17903.759391 17727.259509 17656.261230 18565.951980 20432.243627 21093.846060 20762.324713 19011.828209 16902.883769 16011.659815 16213.145528 17020.166352 18713.306310 20505.823005 21300.375104 19789.579204 17615.953444 16095.220248 16476.645691 18769.321912 19983.037044 19471.728037 20059.303366 21879.204278 23297.514827 23346.643763 22186.425398 21651.728492 22287.259457 22278.175198 20813.285726 19550.836949 19597.734236 20450.928508 21187.629216 20794.445829 18803.728531 17561.932960 17950.022857 17889.686308 15698.772701 12662.350530 10006.222007 8925.288309 10501.787522 14216.905370 18728.340706 22688.497630 25130.386695 26241.219480 27459.094006 29016.769335 29717.240805 29588.866853 29131.112364 28439.921828 26816.542942 24311.800453 20223.146777 17709.767489 19728.301124 24045.626799 27135.133577 27952.598223 27801.303384 27494.400277 26917.265871 25584.505630 24965.406898 25033.702154 23733.849996 22043.228429 21488.133146 21735.436219 22627.802171 24035.465831 24873.057077 24308.836558 22867.397019 22310.939703 22402.028895 21813.139136 21579.085782 22238.012545 22170.404135 20490.870393 18396.496243 16835.819328 16498.960258 16993.342834 17521.244917 18651.359286 19515.856866 20314.432001 22007.202103 23478.993794 22890.039271 20591.974849 18136.816790 17260.129989 18323.445238 20342.440009 21270.947876 20195.093209 18948.350360 18105.555042 17793.384825 19116.314427 21104.324899 21734.429088 21065.462667 20173.833142 19350.816594 19153.737861 20251.558516 21485.385571 22150.955087 22062.618917 20800.548110 18976.109328 17395.702533 17052.353891 17967.702917 19415.302783 19992.516453 19657.670314 19459.074070 20191.493359 21065.048841 21654.778855 22029.392914 21572.209045 19449.983456 16772.460647 14870.302348 14718.837785 16475.030181 19183.261022 21469.936326 22578.162255 22699.538296 22596.017988 22718.666357 22281.729294 21293.725458 20562.639553 20741.834422 21587.730783 22578.975057 22604.828278 21335.223327 20101.085352 19970.171259 19715.459105 19583.996114 19710.242227 19957.751119 20150.678554 19544.582589 18976.336500 19085.535146 19378.491488 19585.658154 19015.599212 17982.539651 17868.215355 18692.238562 19066.479145 19085.938886 19614.942382 20483.804092 20480.860711 19479.120780 19387.668787 20163.641095 20121.860215 19998.463119 20147.123963 19621.477761 18439.213586 17502.931944 18104.882648 20051.229261 21702.803884 22191.166546 22351.911893 22997.045905 24123.694220 24749.836557 23765.350648 21382.912275 19639.620238 19448.610748 19275.519018 19195.043068 20343.534965 21515.734163 21602.661836 20839.898734 19685.252342 18201.081925 17045.181763 16632.339612 17035.497335 18035.878483 18909.421883 18990.776915 18817.149233 19019.920403 19908.571882 19976.538302 19175.129639 18465.214897 18677.304681 19444.170972 20234.994247 21137.647499 22045.463254 22166.601920 21172.658957 19992.083726 19286.875529 19623.117846 20689.787969 21277.021098 20912.679810 20248.746775 19946.654591 19870.685642 19233.821370 18042.682455 17649.836845 18580.193612 19652.120960 20039.670735 19765.994969 19623.590792 19821.208999 19899.826234 19544.892968 18729.404653 18056.497522 17795.116912 16680.865944 14356.509613 11301.237588 8650.957029 7416.976605 15412.007878 18780.473134 21127.074340 20985.203588 19295.084896 17256.192601 16521.654474 16904.569395 17076.278737 16321.663028 14616.984919 12429.399774 10715.951074 9145.245538 8456.075505 8467.936979 7928.263181 7029.573227 5319.348983 3397.291327 2248.912905 821.404987 71.374924 -251.093184 -320.625487 -263.546269 -175.304727 -100.047667 -50.188202 -22.396080 -8.946757 -3.208721 -1.032388 -0.296389 -0.075239 -0.016701 -0.003204 -0.000526 -0.000073 -0.000009 -0.000001 -0.000000 -0.000000 -0.000000 -0.000000 -0.000000 -0.000000 -0.000000 -0.000000 -0.000000 -0.000000 -0.000000 -0.000000 -0.000000 -0.000000 -0.000000 -0.000000 -0.000000 -0.000000 -0.000000 -0.000000 -0.000000 -0.000000 -0.000000 -0.000000 -0.000000 -0.000000 -0.000000 -0.000000 -0.000000 -0.000000 -0.000000 -0.000000 -0.000000 -0.000000 -0.000000 -0.000000 -0.000000 -0.000000 -0.000000 -0.000000 -0.000000 -0.000000 -0.000000 -0.000000 -0.000000 -0.000000 -0.000000 -0.000000 -0.000000 -0.000000 -0.000000 -0.000000 -0.000000 -0.000000 -0.000000 0.000000 -0.000000 -0.000000 0.000000 0.000000 10006.222007 12641.928648 15788.945202 18145.177370 18957.312592 18460.090789 17755.234581 17458.475941 17048.703641 16163.534004 14858.543434 13218.628827 11488.353588 9941.090793 8932.252206 8394.182988 7872.508807 7025.767268 5798.364572 4209.389816 2745.204994 1548.574311 599.263227 -5.154245 -285.717229 -331.588672 -265.907123 -174.547117 -98.643842 -49.067209 -21.715926 -8.602220 -3.058793 -0.975191 -0.277112 -0.069524 -0.015227 -0.002878 -0.000465 -0.000064 -0.000007 -0.000001 -0.000000 -0.000000 -0.000000 -0.000000 -0.000000 -0.000000 -0.000000 -0.000000 -0.000000 -0.000000 -0.000000 -0.000000 -0.000000 -0.000000 -0.000000 -0.000000 -0.000000 -0.000000 -0.000000 -0.000000 -0.000000 -0.000000 -0.000000 -0.000000 -0.000000 -0.000000 -0.000000 -0.000000 -0.000000 -0.000000 -0.000000 -0.000000 -0.000000 -0.000000 -0.000000 -0.000000 -0.000000 -0.000000 -0.000000 -0.000000 -0.000000 -0.000000 -0.000000 -0.000000 -0.000000 -0.000000 -0.000000 -0.000000 -0.000000 -0.000000 -0.000000 -0.000000 -0.000000 -0.000000 -0.000000 0.000000 -0.000000 -0.000000 -0.000000 -0.000000 -0.000000 7416.976605 8602.241533 11128.988959 14085.957619 16364.327362 17576.042660 17848.119096 17615.016411 17114.980284 16332.191672 15286.333548 14032.431433 12640.127823 11243.455378 9993.889535 9010.906953 8186.944572 7307.827298 6291.144049 5091.015787 3749.116847 2457.794782 1351.413276 498.677591 -49.397793 -296.977367 -333.008187 -266.635088 -175.703186 -99.867419 -50.017787 -22.302624 -8.903429 -3.192018 -1.026884 -0.294756 -0.074788 -0.016584 -0.003176 -0.000520 -0.000072 -0.000008 -0.000001 -0.000000 -0.000000 -0.000000 -0.000000 -0.000000 -0.000000 -0.000000 -0.000000 -0.000000 -0.000000 -0.000000 -0.000000 -0.000000 -0.000000 -0.000000 -0.000000 -0.000000 -0.000000 -0.000000 -0.000000 -0.000000 -0.000000 -0.000000 -0.000000 -0.000000 -0.000000 -0.000000 -0.000000 -0.000000 -0.000000 -0.000000 -0.000000 -0.000000 -0.000000 -0.000000 -0.000000 -0.000000 -0.000000 -0.000000 -0.000000 -0.000000 -0.000000 -0.000000 -0.000000 -0.000000 -0.000000 -0.000000 -0.000000 -0.000000 -0.000000 -0.000000 -0.000000 -0.000000 -0.000000 0.000000 0.000000 -0.000000 -0.000000 0.000000 -0.000000 -0.000000 0.000000 0.000000 0.000000 0.000000 -0.000000 -0.000000 0.000000 0.000000 0.000000 -0.000000 -0.000000 0.000000 0.000000 0.000000 -0.000000 -0.000000 0.000000 0.000000 0.000000 0.000000 0.000000 0.000000 0.000000 0.000000 0.000000 0.000000 0.000000 0.000000 0.000000 -0.000000 -0.000000 -0.000000 -0.000000 0.000000 0.000000 0.000000 -0.000000 -0.000000 0.000000 0.000000 0.000000 -0.000000 -0.000000 0.000000 -0.000000 0.000000 0.000000 0.000000 0.000000 0.000000 0.000000 0.000000 0.000000 0.000000 0.000000 0.000000 0.000000 0.000000 0.000000 0.000000 0.000000 0.000000 0.000000 0.000000 0.000000 0.000000 0.000000 0.000000 0.000000 -0.000000 0.000000 0.000000 0.000000 0.000000 0.000000 0.000000 0.000000 0.000000 0.000000 0.000000 0.000000 0.000000 0.000000 -0.000000 0.000000 0.000000 0.000000 0.000000 0.000000 0.000000 0.000000 0.000000 0.000000 0.000000 0.000000 0.000000 0.000000 0.000000 0.000000 -0.000000 0.000000 0.000000 -0.000000 0.000000 0.000000 0.000000 0.000000 0.000000 -0.000000 -0.000000 -0.000000 -0.000000 -0.000000 -0.000000 -0.000000 -0.000000 -0.000000 -0.000000 -0.000000 -0.000000 -0.000000 -0.000000 -0.000000 -0.000000 -0.000000 -0.000000 -0.000000 -0.000000 -0.000000 -0.000000 0.000000 -0.000000 -0.000000 -0.000000 -0.000000 0.000000 0.000000 0.000000 -0.000000 0.000000 0.000000 0.000000 0.000000 -0.000000 0.000000 0.000000 0.000000 0.000000 0.000000 0.000000 0.000000 0.000000 0.000000 0.000000 0.000000 0.000000 0.000000 0.000000 0.000000 -0.000000 0.000000 0.000000 -0.000000 -0.000000 -0.000000 -0.000000 -0.000000 -0.000000 -0.000000 0.000000 -0.000000 -0.000000 -0.000000 -0.000000 0.000000 -0.000000 0.000000 0.000000 0.000000 0.000000 0.000000 0.000000 0.000000 0.000000 0.000000 0.000000 0.000000 0.000000 0.000000 0.000000 0.000000 0.000000 0.000000 0.000000 0.000000 0.000000 0.000000 0.000000 0.000000 0.000000 0.000000 0.000000 -0.000000 0.000000 0.000000 0.000000 0.000000 0.000000 0.000000 -0.000000 0.000000 0.000000 0.000000 0.000000 -0.000000 0.000000 0.000000 0.000000 0.000000 -0.000000 0.000000 0.000000 0.000000 0.000000 0.000000 0.000000 0.000000 0.000000 0.000000 0.000000 0.000000 0.000000 0.000000 -0.000000 0.000000 0.000000 -0.000000 0.000000 0.000000 0.000000 0.000000 -0.000000 0.000000 0.000000 0.000000 0.000000 -0.000000 0.000000 0.000000 0.000000 0.000000 0.000000 0.000000 0.000000 0.000000 0.000000 0.000000 0.000000 0.000000 0.000000 0.000000 0.000000 0.000000 0.000000 0.000000 0.000000 0.000000 0.000000 0.000000 0.000000 0.000000 -0.000000 -0.000000 0.000000 0.000000 0.000000 0.000000 -0.000000 0.000000 0.000000 0.000000 -0.000000 -0.000000 0.000000 0.000000 -0.000000 -0.000000 0.000000 0.000000 0.000000 -0.000000 0.000000 0.000000 0.000000 0.000000 -0.000000 0.000000 0.000000 0.000000 0.000000 -0.000000 -0.000000 0.000000 0.000000 0.000000 -0.000000 0.000000 0.000000 0.000000 0.000000 -0.000000 -0.000000 -0.000000 -0.000000 -0.000000 -0.000000 -0.000000 -0.000000 -0.000000 -0.000000 -0.000000 -0.000000 0.000000 0.000000 -0.000000 -0.000000 -0.000000 -0.000000 -0.000000 -0.000000 0.000000 -0.000000 -0.000000 -0.000000 -0.000000 0.000000 -0.000000 0.000000 0.000000 -0.000000 -0.000000 0.000000 0.000000 0.000000 -0.000000 -0.000000 0.000000 0.000000 0.000000 -0.000000 -0.000000 0.000000 0.000000 0.000000 0.000000 -0.000000 0.000000 0.000000 -0.000000 -0.000000 -0.000000 0.000000 0.000000 -0.000000 0.000000 0.000000 0.000000 -0.000000 0.000000 -0.000000 0.000000 0.000000 -0.000000 0.000000 -0.000000 0.000000 0.000000 0.000000 0.000000 0.000000 0.000000 0.000000 0.000000 0.000000 0.000000 0.000000 0.000000 0.000000 0.000000 0.000000 0.000000 0.000000 0.000000 0.000000 0.000000 0.000000 0.000000 0.000000 0.000000 0.000000 0.000000 0.000000 0.000000 0.000000 0.000000 0.000000 -0.000000 0.000000 0.000000 0.000000 0.000000 0.000000 0.000000 0.000000 0.000000 0.000000 0.000000 0.000000 0.000000 0.000000 0.000000 0.000000 0.000000 0.000000 0.000000 0.000000 0.000000 0.000000 0.000000 0.000000 0.000000 0.000000 0.000000 0.000000 0.000000 0.000000 0.000000 0.000000 0.000000 0.000000 0.000000 0.000000 0.000000 0.000000 0.000000 0.000000 0.000000 0.000000 0.000000 0.000000 0.000000 0.000000 0.000000 0.000000 0.000000 0.000000 0.000000 0.000000 0.000000 0.000000 0.000000 0.000000 0.000000 0.000000 0.000000 0.000000 0.000000 0.000000 0.000000 0.000000 0.000000 0.000000 0.000000 0.000000 0.000000 -0.000000 0.000000 0.000000 0.000000 0.000000 0.000000 0.000000 0.000000 0.000000 0.000000 0.000000 -0.000000 0.000000 0.000000 -0.000000 0.000000 0.000000 0.000000 0.000000 0.000000 0.000000 0.000000 0.000000 0.000000 -0.000000 0.000000 0.000000 0.000000 0.000000 -0.000000 -0.000000 0.000000 0.000000 0.000000 0.000000 0.000000 0.000000 0.000000 0.000000 -0.000000 -0.000000 -0.000000 -0.000000 -0.000000 -0.000000 -0.000000 -0.000000 -0.000000 -0.000000 -0.000000 -0.000000 0.000000 0.000000 -0.000000 -0.000000 -0.000000 -0.000000 -0.000000 0.000000 0.000000 0.000000 -0.000000 0.000000 0.000000 0.000000 0.000000 0.000000 0.000000 0.000000 -0.000000 -0.000000 -0.000000 0.000000 0.000000 -0.000000 -0.000000 -0.000000 0.000000 0.000000 -0.000000 0.000000 0.000000 0.000000 0.000000 -0.000000 0.000000 0.000000 0.000000 -0.000000 -0.000000 0.000000 0.000000 0.000000 0.000000 0.000000 0.000000 0.000000 0.000000 0.000000 0.000000 0.000000 0.000000 0.000000 0.000000 0.000000 0.000000 0.000000 0.000000 0.000000 0.000000 0.000000 0.000000 0.000000 0.000000 0.000000 0.000000 0.000000 0.000000 0.000000 0.000000 0.000000 0.000000 0.000000 0.000000 0.000000 0.000000 0.000000 0.000000 0.000000 0.000000 0.000000 0.000000 0.000000 0.000000 0.000000 0.000000 0.000000 0.000000 -0.000000 -0.000000 -0.000000 -0.000000 -0.000000 -0.000000 -0.000000 -0.000000 -0.000000 -0.000000 -0.000000 -0.000000 -0.000000 -0.000000 -0.000000 -0.000000 -0.000000 -0.000000 -0.000000 0.000000 0.000000 0.000000 0.000000 0.000000 -0.000000 -0.000000 -0.000000 -0.000001 -0.000006 -0.000053 -0.000404 -0.002600 -0.014343 -0.068426 -0.284597 -1.039168 -3.350644 -9.595024 -24.568091 -56.742709 -119.963479 -237.895169 -453.136885 -808.067697 -1199.916646 -1273.502249 -806.771780 -765.763663 -1926.225673 -3160.098940 -3550.674418 -2237.917606 -351.227510 1431.932701 2007.747375 2638.418074 2604.623512 3115.720349 3185.756327 3127.823288 3053.830765 4478.995845 6184.440075 9387.555321 14612.666597 16277.973207 15942.749647 15902.980458 16065.530833 14425.068708 14950.475486 17126.530751 19061.543122 21052.813768 22462.060466 24969.878964 23608.529720 23596.830556 29109.206813 27622.913654 24557.981471 27869.291074 30327.863948 29040.726254 30564.539649 31454.805076 29268.773985 25154.205031 26789.172053 31564.340498 36743.341455 40830.118210 41152.000777 40505.291757 44455.439189 43658.463484 33234.359662 22398.744293 0.000000 0.000000 0.000000 -0.000000 -0.000000 -0.000000 -0.000000 -0.000000 -0.000000 -0.000000 -0.000000 -0.000000 -0.000000 -0.000000 -0.000000 -0.000000 -0.000000 -0.000000 -0.000000 -0.000000 -0.000000 -0.000000 -0.000000 -0.000000 0.000000 0.000000 0.000000 0.000000 -0.000000 -0.000000 -0.000000 -0.000000 -0.000005 -0.000046 -0.000355 -0.002320 -0.012997 -0.062871 -0.264823 -0.978288 -3.188057 -9.216253 -23.790781 -55.291979 -117.135154 -231.107156 -435.835124 -780.557511 -1216.638818 -1411.958025 -1036.336240 -390.661567 -215.662706 -246.877040 -105.409423 -484.922650 -1180.920820 -506.062636 779.463863 1447.013806 1794.601503 2030.221557 1767.285969 1433.197164 1497.960229 2591.842776 4171.876391 5676.987411 7791.741729 9622.854810 10132.193800 9822.349624 9613.354454 9718.965801 10200.084499 11433.471144 12707.147611 13369.379372 14264.100084 14721.762861 14702.633649 15347.235964 17631.782494 18984.073744 18291.081320 17283.799292 18650.058773 20992.282143 22599.274319 23167.316070 22970.845921 22586.542902 23226.484488 24871.714299 27082.899150 29118.490244 32180.925310 34901.715217 35766.193990 32749.268108 24662.240375 16992.453584 12424.270793 0.000000 0.000000 0.000000 0.000000 -0.000000 -0.000000 -0.000000 -0.000000 -0.000000 -0.000000 -0.000000 -0.000000 -0.000000 -0.000000 -0.000000 -0.000000 -0.000000 -0.000000 -0.000000 -0.000000 -0.000000 -0.000000 -0.000000 -0.000000 -0.000000 -0.000000 0.000000 0.000000 0.000000 -0.000000 -0.000000 -0.000000 -0.000001 -0.000006 -0.000052 -0.000399 -0.002572 -0.014222 -0.067953 -0.282952 -1.034108 -3.336681 -9.559368 -24.482571 -56.503537 -118.822486 -232.189142 -432.154698 -766.727637 -1214.243257 -1508.490975 -1248.030684 -487.767762 225.031710 577.155777 443.386763 -322.854736 -1116.580157 -970.906590 -74.874444 754.665953 1263.813869 1334.401714 986.472165 620.973724 748.438061 1558.282363 2628.554006 3594.635404 4766.009455 6010.966050 6789.767302 7250.247512 7804.903646 8441.830372 8741.838712 9019.308024 9230.298622 9641.920639 10357.449644 10633.891425 10801.884155 11379.636589 11766.373447 11726.972442 12093.746574 13500.794103 16200.064268 18501.579839 19535.262215 20271.879757 21081.756409 22047.138327 23012.758968 24266.132239 24971.770780 25230.915912 26133.157257 27346.499712 26743.330313 23367.035042 18361.213254 13539.077700 10286.374307 8925.288309 27976.028022 27822.904635 22507.904289 20440.036150 34360.072322 37806.512389 38274.647966 40296.025616 40505.603520 37833.635247 34539.287282 35921.177788 44843.129661 51845.037730 51932.187372 48787.063468 44720.830768 54816.858850 53670.115588 47292.329833 19256.179330 19967.155740 15398.996674 23918.444038 35863.446244 41455.384101 40285.545497 53147.122355 42868.655222 43098.054087 37183.247216 43884.175985 57690.009652 55501.135394 48143.500144 44943.250500 46663.977810 62326.738821 48127.241051 55241.964085 23658.675468 8827.423769 8324.639535 14551.109836 29337.510423 38194.008996 48412.989124 55258.364751 50972.228554 50287.624469 54057.441653 56432.143106 62102.499074 47402.922166 40219.613712 34890.696866 39675.672049 51664.446802 53503.311716 47941.989263 32430.178067 12862.250026 13237.457634 22991.581408 28719.365727 35929.954711 43699.832319 51721.329186 53778.581570 54606.578537 58331.053998 51885.458335 39218.127839 33110.882502 18566.695575 16341.057693 33514.078104 38402.546949 46001.858225 47220.991703 34105.295383 15018.009115 16015.810895 30294.117907 39617.681126 36000.824022 37731.327271 40843.956045 45279.439805 53255.154317 58313.260021 52184.458614 36821.186564 22495.153442 20192.703865 17266.658471 22389.287908 29220.407609 31241.080339 55234.957470 -43822.716222 -3159.658526 12744.130227 39287.097858 54051.859353 42032.699547 29633.635850 23836.964975 32125.671969 48914.069992 61971.983142 57984.441130 47222.985656 37162.554296 35505.495098 41210.164819 37591.249545 53080.619664 60244.040417 59450.482494 -44525.065084 -21260.664959 -3046.233948 30618.559813 65269.376826 51870.575617 22669.325283 12806.751953 20601.807553 38819.538427 57929.937039 65774.892624 64348.591030 51775.697915 47397.825674 40668.227948 46327.310338 56627.225514 61889.244621 61149.520963 -32652.075722 -23444.699953 -19987.113973 33837.848699 67922.673445 48546.494476 25952.203886 8663.089962 9622.101017 24680.753223 50121.890038 58460.095522 61138.752489 47935.129775 43822.648813 28648.180603 29872.714485 39302.440736 41589.011819 50546.989925 -7304.378964 1048.414657 -11157.733683 21448.879151 59492.499838 46505.127164 29776.224222 13722.997928 11702.803048 20491.583151 30542.274309 41095.180620 43728.960164 39926.222048 33863.548194 23144.447988 27092.248513 36253.174309 51584.080746 52438.026821 -9880.038533 27143.934619 36695.421094 40220.588260 37712.759858 31257.694077 29142.359983 26131.870185 24913.696104 26839.549898 26127.365521 28384.194639 29306.560223 35138.494064 44046.881163 44087.847041 33513.412136 32945.629170 52302.719581 43161.109586 53691.138038 62844.801052 66281.601416 49426.122812 19405.577641 20459.671046 33705.831341 43980.769806 42143.047934 35438.292617 30547.408035 27326.697007 27423.344835 42782.648570 56133.485151 55794.440379 52089.677793 31370.916064 38469.667781 32789.504568 80409.867652 61224.471711 57944.683943 27368.106133 8939.096603 21618.727993 41756.643548 52940.764052 48759.816912 39016.480657 31453.417058 32065.161712 37233.914229 49735.364107 58104.221765 50408.905004 33212.660505 23849.425207 24473.692754 28125.145585 59823.010515 39461.596577 18576.372826 2866.997577 8121.488931 27538.070633 51566.704273 58288.018747 48134.048005 30905.209183 25317.047030 32139.276958 39146.553331 51949.252576 55482.504999 45108.237922 32972.037808 22806.378465 15509.801413 22079.346987 17801.701882 5733.889776 437.747143 9175.062510 26387.436469 43487.522022 57638.334497 57394.468734 40261.549753 19668.516513 13029.912939 26345.326500 38178.828263 50134.520513 49352.497542 46767.652654 46093.158437 41342.253731 39938.295081 21638.560652 -10694.681731 -1797.410322 5096.678505 30543.407519 43346.312632 54095.158212 61233.840610 56892.630828 31092.771585 13261.807694 8113.012835 18563.876348 40472.517265 46394.972052 42598.763600 45164.668636 49151.689977 56416.428259 51275.014374 39884.341631 -17398.562100 -4296.158411 11878.033215 39752.491171 51731.333001 55223.195250 54704.571318 45500.556067 30204.659544 6670.826202 7841.009988 28157.282763 43848.613814 49352.781623 36696.409559 29908.254853 47088.841993 53129.315782 48357.717026 53243.768939 -31913.273760 -6828.980472 13188.612299 40355.589267 48477.624617 44077.294777 44912.970559 39754.996826 18319.588371 8297.725804 16646.591678 35667.590347 53566.887232 52916.318303 39942.082854 20335.336721 30311.470859 38989.051369 52638.493509 56155.615114 -22657.829772 1103.118185 19546.211002 42279.725785 42195.562622 33353.538608 36611.163062 32558.290440 22238.941471 13959.459567 23200.267822 44908.837873 65274.222168 62019.769201 36647.723661 18947.515639 19809.246371 37389.353254 58231.903213 57833.320353 -9554.893545 10619.835602 26431.718215 44017.310723 36359.504472 25593.327103 29521.277281 30688.526580 21134.615741 17849.902382 31315.630050 51876.297107 71490.271181 64369.639458 49827.796270 29505.029290 20907.203883 32162.532581 45816.849118 55823.296173 13705.568497 22638.629551 30233.763591 36105.612935 26593.439380 23366.806396 27411.076631 29113.209963 24725.906154 21750.352682 33432.878280 52024.526760 71420.444809 71726.268974 59251.955875 38583.251106 29137.519142 31738.109266 52784.246520 41930.381700 24852.212281 24436.480110 24793.798362 27456.681219 25118.875314 26906.698551 28817.624440 28510.100349 25328.306776 23759.263140 29281.054047 44418.609917 56267.689310 64052.271054 58986.755476 43673.506748 39221.600259 32166.917979 34102.335207 33340.017342 28311.362439 22708.439613 19949.872982 22793.489930 27003.500977 30573.166208 31565.565752 30210.447527 27974.801153 28505.982506 28343.484684 29723.955942 34434.860423 40994.376922 50914.346022 45708.442952 37715.115373 34764.056950 31846.210982 29431.915716 9021.903013 7697.846453 9709.877570 19131.714352 30080.526851 35736.097360 33301.300039 28614.722111 26531.314262 32193.136858 32279.728714 24294.144856 17302.870822 20950.051969 26587.818337 43094.795778 45751.506761 40551.640088 40097.876985 36269.318803 -11249.196486 -8655.293963 266.473937 16782.861962 36360.725826 40497.455639 29638.152453 20138.952646 23493.369518 32080.385657 37985.494923 30828.901804 11486.641031 5938.019877 19398.478023 38011.393085 51254.310590 55547.650444 46387.516266 44858.881718 -18795.765394 -12865.706198 -432.109170 25971.892711 41118.752566 41200.885396 27468.675396 13190.223629 14673.873568 25157.146234 41009.466838 36143.741926 23659.938114 7557.425797 12018.810857 25944.203139 47175.364802 55119.139678 49317.633036 46707.787210 -11266.952907 -4914.784386 8705.488527 25452.600706 45610.760526 42800.899340 27115.381293 5808.197691 55.406866 21575.514949 41415.695148 46219.373503 29150.746821 17020.778152 12825.727724 20290.782300 34069.384704 38607.612203 42949.355287 45121.053491 -356.733519 4047.733944 11742.584135 30857.032221 42514.325458 43643.862273 24581.709423 10485.713195 -2471.391162 5816.103771 33399.661746 49210.415953 40259.925165 25463.292920 17063.584070 15654.210101 21931.233019 29294.917087 38339.364237 37020.096671 5441.156820 6008.497711 10736.394942 22734.386462 36214.538456 40440.343776 28817.038556 9271.499282 -2723.795428 5516.605751 27157.031892 44082.837370 38189.013949 30667.999635 20917.636558 15616.208584 16151.287621 20631.790703 28843.460660 30512.460475 5888.354060 6776.355078 9123.094253 15104.238197 27415.416917 32487.432091 28229.106567 14525.789179 2754.549395 8666.168000 20031.853967 35506.226507 33544.697305 23981.769190 21450.914836 18766.034546 16901.341924 14343.650349 15206.313436 15395.528113 16613.008447 12608.696881 13675.255635 12842.230353 15815.421842 23876.574684 28071.268063 22445.711492 11123.472621 10593.635995 18531.238138 21773.276907 22667.073725 19928.970296 25182.467079 27108.384523 23973.618163 24360.648921 23134.893959 22834.404667 13324.198746 17685.891886 19443.280954 13574.526167 9456.061648 14318.843261 26295.256708 30414.507320 26257.919330 16194.099706 15281.628207 16460.225830 16064.884333 18463.466699 28076.000519 34151.050256 29607.236486 28623.633497 27041.672668 29293.029006 9520.318118 20757.073816 20845.443458 11814.322159 5135.609532 9854.733405 24086.032696 33532.619585 31667.567902 21368.848208 13574.650464 13553.469357 15853.080753 21966.057008 26724.993327 32804.243399 34506.027588 33300.299728 33580.757445 33555.953291 8067.402457 14499.890371 15096.742464 7464.521803 1656.970661 7240.032494 19870.641956 34180.125228 32630.384556 21989.515379 14259.133258 15557.037169 19616.482732 21896.948010 20284.441122 17648.964180 24610.578494 26452.242980 31447.121989 31005.480249 2755.173331 8460.443110 8842.904243 3814.684267 560.645261 4781.694868 19462.150135 29522.196540 29415.618059 21696.786494 18301.744505 20192.804353 23274.464982 20144.677766 13254.125008 9800.486938 18214.971025 22943.844459 28601.081386 29965.165408 -2023.761292 2713.797955 5054.262689 3634.671840 2572.650654 7877.761093 17693.615415 27733.448491 27130.369230 21316.735862 19691.049420 23937.260293 26097.903452 20017.847458 13439.352996 10732.923946 15734.192783 24621.502203 26558.758541 29374.399852 -5651.728934 -1117.796469 4332.512209 6736.224250 7068.686619 11907.207849 19662.065886 25374.021758 23198.697520 18870.259364 19107.591310 23088.715858 26037.703881 22333.217156 15093.479581 18363.648175 22446.902646 31099.832972 28887.712345 28086.559743 -7782.117469 -1647.735544 4290.245845 9973.045775 13113.089576 15103.414067 21075.000015 24595.443031 22472.902708 17209.22