<VTKFile type="PolyData">
<PolyData>
<Piece NumberOfPoints="6715" NumberOfVerts="6715" NumberOfLines="0" NumberOfStrips="0" NumberOfPolys="0">
<PointData>
<DataArray type="Float64" Name="Pressure" format="ascii">
 200.421563 1673.852873 4426.838230 7068.213884 8801.059338 9461.372599 10169.423560 10562.487664 10070.442212 8900.092591 6694.213188 3307.585891 1065.086969 -4865.203041 -16207.994158 -23358.283376 -22941.224128 -18020.259915 -11457.996582 -2033.792827 286.093904 1008.370171 611.297780 832.608923 2453.485383 3839.950130 5049.747924 6121.171508 6703.449346 7014.733979 7276.964411 7706.118033 8079.647714 8513.151956 8672.394768 8733.913671 9088.111340 9383.472565 9582.716004 10021.374703 10690.673720 11319.577268 12053.336470 12898.318189 13453.774002 14235.382885 14632.170125 14375.185122 14085.181154 14254.992378 14715.686038 14945.369287 14778.680775 14804.065700 15297.025117 15389.509457 15286.508445 15160.442900 15201.481134 15429.496153 15886.553780 16066.790199 16105.279623 16094.252368 16008.920020 15839.120297 15576.016598 15219.224508 15054.226633 15020.684747 15174.587064 15380.680149 15511.998176 15485.610827 15544.045439 15721.809610 15841.651535 15685.047296 15456.675900 15273.376567 15142.198040 15064.871635 15167.611060 15319.611433 15503.834072 15714.765778 15605.784519 15038.310943 14546.232877 14800.437312 15071.314045 14989.446574 15073.415598 15202.176592 15221.420034 14928.097763 14426.382276 14376.756030 14805.898564 15044.725643 15062.389613 14956.767302 14944.258961 15145.106515 15694.074017 16007.896872 15901.750899 15589.383023 15411.702756 15930.292068 16401.415277 16719.980143 17058.938270 17499.993396 17846.532371 18044.202839 18167.940906 18139.430235 18179.695276 18088.191818 18135.501641 18254.314499 18582.204583 18923.661234 19081.060206 19069.915083 18540.320573 18487.802372 19238.121931 19189.437553 18882.779799 18779.212015 18912.067352 18919.124906 18975.456099 18826.090807 18765.440918 18860.906165 18998.077834 19175.120974 19297.309311 19215.273951 18993.490448 18775.480033 18732.479465 18654.150841 18399.722839 18192.763117 17861.000322 17698.023199 17629.873118 17543.600034 17459.023468 17405.935799 17365.998289 17338.610839 17339.727671 17349.351142 17308.766340 17198.301273 16898.544970 16563.419517 16517.575189 16491.795757 16442.161468 16436.315394 16492.334272 16628.281287 16627.551302 16565.251950 16673.749155 16754.142549 16555.569894 16284.733389 16192.590539 16459.408965 16584.360565 16565.981780 16541.878042 16487.034370 16530.250804 16712.092250 16883.725452 17003.033246 17036.294405 17102.620878 17260.827027 17317.538097 17369.423794 17389.154792 17391.894279 17393.226211 17492.949082 17516.125699 17321.770480 17030.454451 16814.165792 16569.254060 16285.188805 15918.250368 15526.767627 44.719923 434.424859 1504.220229 3448.538889 5676.785212 7307.181713 8126.200091 8908.875617 9409.186566 8910.059989 8147.640926 7719.908702 6663.373460 5165.574930 1819.258277 -7302.757442 -17281.171769 -25357.426235 -30204.073264 -27378.247232 -16484.677459 -6897.738823 -2536.071958 -614.387976 779.727148 2301.647881 3846.708558 5146.639467 5887.167185 6195.865910 6541.144904 6987.156536 7457.446266 7989.609919 8468.506947 8656.308910 8811.490603 9195.182375 9621.393698 9992.252483 10469.929708 11084.236341 11667.232707 12349.713035 13064.538051 13684.792058 14301.560931 14606.336385 14521.793455 14459.621327 14618.183927 14873.589174 14948.705210 14853.633178 14807.339256 14944.330360 15063.717170 15112.101558 15105.903535 15140.162817 15231.195074 15375.672640 15557.878719 15665.092784 15668.953520 15636.539718 15516.554587 15307.664489 15176.606023 15227.357336 15272.573007 15344.399187 15486.856487 15447.820080 15317.432020 15404.954056 15549.161785 15538.730481 15384.222976 15172.018421 15000.806658 14889.051301 14854.717092 14924.012579 15040.800336 15153.728283 15304.171934 15319.409220 14993.219609 14669.267186 14768.917348 14967.222771 14988.182521 15008.732588 15028.623327 15006.598541 14839.722620 14558.898557 14436.986753 14591.649344 14794.126605 14875.128617 14917.784146 15042.062484 15204.664721 15495.130212 15810.321220 15870.793818 15635.096826 15496.144436 15799.068806 16280.252291 16531.071128 16868.492121 17316.602380 17705.852034 17960.367295 18127.085124 18244.007260 18290.574726 18209.300570 18201.962952 18443.033774 18691.190639 18845.285969 19115.589489 19149.421626 18884.745863 18993.057635 19362.268483 19388.786477 19114.918881 18980.457266 18970.705083 18974.727041 19020.523658 19121.353914 19149.877141 19086.606824 19144.060184 19260.569911 19320.233616 19239.177587 18985.642763 18726.688880 18593.424897 18474.775081 18281.322483 18058.938778 17819.528082 17623.056191 17491.937280 17363.629590 17273.025137 17233.244273 17195.703710 17167.425165 17158.626599 17142.071421 17082.822709 16948.310095 16733.174506 16554.422191 16458.172031 16380.012839 16295.155557 16211.112601 16193.900401 16244.968259 16270.891268 16252.743202 16263.356137 16286.278717 16223.745275 16084.494433 16053.032474 16198.037762 16325.947781 16315.149345 16252.908996 16242.046450 16343.394861 16506.581926 16621.079676 16686.602075 16768.869920 16872.062838 16950.653574 16986.594988 17020.633050 17067.489917 17065.996520 17014.225013 17016.443046 17037.881339 16964.045269 16754.495176 16492.357251 16226.015001 15927.952794 15585.208488 15271.788484 15054.674835 51.010317 164.246615 636.219459 1661.781910 3135.884820 4862.982538 6422.602372 7606.466172 8499.629810 8948.255526 8728.751426 8147.164015 7707.188824 7377.140403 6908.216496 4898.063053 -1220.375763 -10105.418338 -18059.794644 -22943.258017 -21769.640807 -15466.360440 -8523.181447 -4035.060084 -1475.444984 392.759527 2109.915202 3699.894539 4917.647426 5633.832051 6026.473081 6389.123032 6837.267322 7303.963248 7786.701469 8216.073089 8519.120654 8787.375536 9140.555813 9573.250895 10063.692668 10618.036049 11214.472068 11816.551536 12442.858334 13071.954807 13652.882417 14112.996089 14383.973375 14483.545954 14555.739932 14687.420533 14828.445605 14905.564972 14916.271169 14926.763996 14969.109728 15030.384225 15064.831121 15086.294783 15142.244352 15230.530548 15331.554534 15451.831456 15516.347265 15499.340403 15418.782196 15287.151406 15143.849269 15062.912733 15071.943523 15132.091618 15211.605461 15288.383491 15293.024243 15266.952274 15304.424113 15337.191470 15275.404327 15138.545841 14964.627405 14817.572844 14741.795445 14744.133178 14819.509824 14929.150237 15018.740994 15071.825706 15040.438684 14877.549332 14712.072309 14699.215929 14781.831418 14849.877412 14895.125967 14917.154319 14888.704831 14786.536416 14643.048001 14553.266408 14574.019477 14663.699693 14740.990946 14832.373190 14991.568669 15191.567877 15406.522066 15609.332508 15697.045698 15668.524661 15697.536237 15908.858530 16242.731463 16568.352076 16903.612779 17263.257924 17598.491625 17868.144198 18061.509252 18198.299684 18264.517273 18283.423852 18359.661449 18537.551761 18717.079286 18864.007677 18994.062813 19024.404090 18984.528610 19065.378047 19225.286379 19234.513120 19093.320539 18996.200656 18974.837402 19000.532562 19062.011093 19149.835289 19179.737313 19156.612327 19166.384748 19192.016691 19172.070940 19084.510253 18917.867319 18716.596694 18541.392240 18368.325514 18170.815782 17952.089894 17738.390950 17551.271543 17404.406266 17284.698891 17195.936929 17141.071602 17107.746001 17089.107241 17078.583262 17056.908008 16998.084018 16882.888143 16731.295071 16589.392855 16462.247092 16352.513246 16250.159965 16156.775360 16101.815516 16085.971873 16084.944999 16084.941026 16085.798393 16089.497195 16066.453991 16024.229174 16039.895630 16130.314465 16221.657406 16255.904767 16246.813794 16268.484220 16345.143861 16434.297320 16508.021989 16571.782315 16643.138083 16714.647525 16762.641401 16794.945169 16826.921908 16864.610857 16872.264360 16847.689944 16828.726417 16801.020174 16712.241883 16542.823211 16318.280943 16061.343525 15772.356700 15461.741880 15166.596781 14957.429334 14869.237074 15526.767627 15933.619212 16225.157334 16224.844117 15927.361880 15461.637761 14862.001401 14124.838966 13290.187527 12465.517460 11747.208305 10944.356405 10102.161771 9319.529559 8500.700931 7635.499168 7148.704267 6763.038200 6319.463702 5838.877875 5484.446128 4984.125548 4528.167382 4129.076807 3761.714062 3445.310682 3173.341259 2939.569499 2738.219255 2563.498698 2410.024946 2273.116221 2148.929977 2034.447461 1927.376582 1826.027436 1729.192959 1636.045988 1546.053511 1458.905622 1374.456632 1292.676375 1213.610338 1137.347580 1063.995638 993.661633 926.438803 862.397668 801.581023 744.001959 689.644212 638.464155 590.393877 545.344893 503.212098 463.877688 427.214859 393.091143 361.371312 331.919818 304.602772 279.289490 255.853644 234.174075 214.135307 195.627832 178.548201 162.798971 148.288554 134.930985 122.645653 111.357004 100.994235 91.490998 82.785112 74.818289 67.535887 60.886680 54.822642 49.298764 44.272872 39.705470 35.559591 31.800663 28.396380 25.316579 22.533128 20.019812 17.752232 15.707696 13.865121 12.204932 10.708960 9.360328 8.143300 7.042970 6.044468 5.130565 4.270473 3.434470 2.995931 15054.674835 15262.152626 15545.372156 15725.217905 15664.092703 15407.747391 14993.976333 14429.484557 13759.925327 13020.824498 12276.383732 11547.594259 10784.888017 10003.415757 9241.640946 8502.175771 7800.964946 7235.490013 6744.934384 6278.348135 5823.674296 5392.106158 4954.591426 4524.581187 4119.154190 3757.470892 3442.976541 3171.538332 2938.100016 2737.028218 2562.556211 2409.294345 2272.558082 2148.506469 2034.125754 1927.129675 1825.833747 1729.035514 1635.911635 1545.932264 1458.790130 1374.341732 1292.558701 1213.487970 1137.219735 1063.862388 993.523658 926.297185 862.253713 801.436124 743.857490 689.501454 638.324245 590.257780 545.213393 503.085794 463.757011 427.100084 392.982412 361.268653 331.823168 304.511996 279.204398 255.774010 234.099647 214.065820 195.563016 178.487787 162.742698 148.236170 134.882250 122.600341 111.314900 100.955139 91.454723 82.751483 74.787141 67.507066 60.860041 54.798050 49.276090 44.251994 39.686273 35.541968 31.784511 28.381602 25.303082 22.520824 20.008620 17.742074 15.698499 13.856818 12.197464 10.702284 9.354448 8.138357 7.039553 6.044671 5.141565 4.321801 3.593236 3.111316 2.911400 14869.237074 14951.434327 15131.154319 15338.474270 15453.029005 15391.559319 15152.914472 14758.009175 14230.286688 13604.674820 12915.561310 12197.089356 11466.038282 10720.415156 9968.280167 9229.005775 8519.794377 7863.152503 7281.870979 6763.686664 6284.216509 5825.250887 5379.317832 4939.604554 4513.003631 4115.235947 3757.920174 3444.474741 3173.112667 2939.506084 2738.198995 2563.492071 2410.022337 2273.115147 2148.929517 2034.447281 1927.376522 1826.027418 1729.192953 1636.045987 1546.053511 1458.905622 1374.456632 1292.676375 1213.610338 1137.347580 1063.995638 993.661633 926.438803 862.397668 801.581023 744.001959 689.644212 638.464155 590.393877 545.344893 503.212098 463.877688 427.214859 393.091143 361.371312 331.919818 304.602772 279.289490 255.853644 234.174075 214.135307 195.627832 178.548201 162.798971 148.288554 134.930985 122.645653 111.357004 100.994235 91.490998 82.785112 74.818289 67.535887 60.886680 54.822642 49.298764 44.272872 39.705470 35.559591 31.800663 28.396380 25.316579 22.533128 20.019813 17.752233 15.707699 13.865128 12.204955 10.709034 9.360572 8.144097 7.045581 6.053026 5.158497 4.364058 3.695155 3.196248 2.939962 2.865178 2.995931 2.732181 2.318674 1.994566 1.726437 1.495907 1.295503 1.120773 0.968410 0.835670 0.720167 0.619798 0.532701 0.457228 0.391919 0.335485 0.286790 0.244832 0.208729 0.177709 0.151093 0.128289 0.108779 0.092111 0.077890 0.065775 0.055468 0.046712 0.039285 0.032993 0.027671 0.023175 0.019383 0.016189 0.013503 0.011247 0.009354 0.007770 0.006444 0.005338 0.004415 0.003646 0.003008 0.002477 0.002037 0.001673 0.001372 0.001124 0.000919 0.000751 0.000612 0.000498 0.000405 0.000329 0.000267 0.000216 0.000175 0.000141 0.000114 0.000091 0.000073 0.000059 0.000047 0.000038 0.000030 0.000024 0.000019 0.000015 0.000012 0.000010 0.000008 0.000006 0.000005 0.000004 0.000003 0.000002 0.000002 0.000001 0.000001 0.000001 0.000000 0.000000 -0.000000 -0.000000 -0.000000 -0.000001 -0.000001 -0.000001 -0.000002 -0.000002 -0.000003 -0.000004 -0.000005 -0.000006 -0.000008 -0.000010 -0.000012 -0.000015 -0.000019 -0.000023 -0.000029 -0.000036 -0.000045 -0.000056 -0.000069 -0.000085 -0.000105 -0.000130 -0.000160 -0.000196 -0.000241 -0.000295 -0.000360 -0.000440 -0.000537 -0.000654 -0.000795 -0.000965 -0.001170 -0.001416 -0.001712 -0.002067 -0.002491 -0.002999 -0.003604 -0.004326 -0.005184 -0.006203 -0.007412 -0.008844 -0.010537 -0.012535 -0.014892 -0.017665 -0.020924 -0.024749 -0.029230 -0.034472 -0.040595 -0.047736 -0.056051 -0.065719 -0.076942 -0.089950 -0.105005 -0.122400 -0.142470 -0.165588 -0.192178 -0.222712 -0.257721 -0.297799 -0.343608 -0.395886 -0.455452 -0.523217 -0.600189 -0.687481 -0.786320 -0.898059 -1.024181 -1.166312 -1.326231 -1.505880 -1.707370 -1.932998 -2.185252 -2.466823 -2.780615 -3.129754 -3.517594 -3.947733 -4.424010 -4.950520 -5.531615 -6.171908 -6.876277 -7.649863 -8.498071 -9.426566 -10.441264 -11.548329 -12.754154 -14.065354 -15.488744 -17.031319 -18.700230 -20.502756 -22.446271 -24.538213 -26.786045 -29.197232 -31.779234 -34.539613 -37.486482 -40.630084 -43.988194 -47.603832 -51.623474 -56.293039 -59.086460 2.911400 2.825807 2.593510 2.275293 1.981457 1.721556 1.493581 1.294045 1.119666 0.967491 0.834878 0.719476 0.619194 0.532172 0.456766 0.391515 0.335134 0.286484 0.244565 0.208498 0.177508 0.150920 0.128140 0.108650 0.091999 0.077794 0.065692 0.055398 0.046652 0.039233 0.032949 0.027633 0.023143 0.019356 0.016166 0.013483 0.011230 0.009340 0.007758 0.006434 0.005329 0.004408 0.003641 0.003003 0.002473 0.002034 0.001670 0.001370 0.001122 0.000917 0.000749 0.000611 0.000497 0.000404 0.000328 0.000266 0.000215 0.000174 0.000141 0.000113 0.000091 0.000073 0.000059 0.000047 0.000038 0.000030 0.000024 0.000019 0.000015 0.000012 0.000010 0.000008 0.000006 0.000005 0.000004 0.000003 0.000002 0.000002 0.000001 0.000001 0.000001 0.000000 0.000000 -0.000000 -0.000000 -0.000000 -0.000001 -0.000001 -0.000001 -0.000002 -0.000002 -0.000003 -0.000004 -0.000005 -0.000006 -0.000008 -0.000010 -0.000012 -0.000015 -0.000019 -0.000023 -0.000029 -0.000036 -0.000045 -0.000056 -0.000069 -0.000085 -0.000105 -0.000130 -0.000159 -0.000196 -0.000240 -0.000294 -0.000360 -0.000439 -0.000536 -0.000652 -0.000793 -0.000963 -0.001168 -0.001414 -0.001710 -0.002064 -0.002488 -0.002994 -0.003599 -0.004319 -0.005176 -0.006194 -0.007402 -0.008832 -0.010523 -0.012519 -0.014873 -0.017643 -0.020899 -0.024719 -0.029195 -0.034432 -0.040549 -0.047682 -0.055989 -0.065648 -0.076861 -0.089857 -0.104898 -0.122279 -0.142331 -0.165430 -0.191998 -0.222508 -0.257490 -0.297538 -0.343314 -0.395554 -0.455079 -0.522798 -0.599719 -0.686955 -0.785733 -0.897404 -1.023452 -1.165502 -1.325333 -1.504885 -1.706270 -1.931785 -2.183916 -2.465355 -2.779004 -3.127990 -3.515666 -3.945629 -4.421720 -4.948031 -5.528916 -6.168986 -6.873120 -7.646459 -8.494409 -9.422633 -10.437050 -11.543822 -12.749345 -14.060234 -15.483304 -17.025552 -18.694130 -20.496318 -22.439491 -24.531086 -26.778559 -29.189346 -31.770812 -34.530202 -37.474584 -40.610768 -43.945036 -47.481485 -51.204521 -54.981835 -57.660969 -58.707042 2.865178 2.841166 2.733923 2.514583 2.245868 1.972635 1.719729 1.493860 1.294879 1.120582 0.968352 0.835652 0.720161 0.619796 0.532701 0.457228 0.391919 0.335485 0.286790 0.244832 0.208729 0.177709 0.151093 0.128289 0.108779 0.092111 0.077890 0.065775 0.055468 0.046712 0.039285 0.032993 0.027671 0.023175 0.019383 0.016189 0.013503 0.011247 0.009354 0.007770 0.006444 0.005338 0.004415 0.003646 0.003008 0.002477 0.002037 0.001673 0.001372 0.001124 0.000919 0.000751 0.000612 0.000498 0.000405 0.000329 0.000267 0.000216 0.000175 0.000141 0.000114 0.000091 0.000073 0.000059 0.000047 0.000038 0.000030 0.000024 0.000019 0.000015 0.000012 0.000010 0.000008 0.000006 0.000005 0.000004 0.000003 0.000002 0.000002 0.000001 0.000001 0.000001 0.000000 0.000000 -0.000000 -0.000000 -0.000000 -0.000001 -0.000001 -0.000001 -0.000002 -0.000002 -0.000003 -0.000004 -0.000005 -0.000006 -0.000008 -0.000010 -0.000012 -0.000015 -0.000019 -0.000023 -0.000029 -0.000036 -0.000045 -0.000056 -0.000069 -0.000085 -0.000105 -0.000130 -0.000160 -0.000196 -0.000241 -0.000295 -0.000360 -0.000440 -0.000537 -0.000654 -0.000795 -0.000965 -0.001170 -0.001416 -0.001712 -0.002067 -0.002491 -0.002999 -0.003604 -0.004326 -0.005184 -0.006203 -0.007412 -0.008844 -0.010537 -0.012535 -0.014892 -0.017665 -0.020924 -0.024749 -0.029230 -0.034472 -0.040595 -0.047736 -0.056051 -0.065719 -0.076942 -0.089950 -0.105005 -0.122400 -0.142470 -0.165588 -0.192178 -0.222712 -0.257721 -0.297799 -0.343608 -0.395886 -0.455452 -0.523217 -0.600189 -0.687481 -0.786320 -0.898059 -1.024181 -1.166312 -1.326231 -1.505880 -1.707370 -1.932998 -2.185252 -2.466823 -2.780615 -3.129754 -3.517594 -3.947733 -4.424010 -4.950520 -5.531615 -6.171908 -6.876277 -7.649863 -8.498071 -9.426566 -10.441264 -11.548329 -12.754154 -14.065354 -15.488744 -17.031319 -18.700230 -20.502754 -22.446265 -24.538196 -26.785990 -29.197051 -31.778645 -34.537695 -37.480233 -40.609723 -43.921833 -47.388136 -50.909574 -54.209857 -56.836550 -58.159860 -58.497950 -59.086460 -62.651785 -69.164099 -75.480009 -81.795158 -88.269201 -94.939773 -101.814857 -108.892556 -116.167182 -123.631053 -131.275024 -139.088630 -147.060129 -155.176519 -163.423561 -171.785814 -180.246695 -188.788549 -197.392748 -206.039811 -214.709544 -223.381193 -232.033621 -240.645486 -249.195427 -257.662250 -266.025102 -274.263637 -282.358173 -290.289842 -298.040738 -305.594084 -312.934429 -320.047900 -326.922550 -333.548878 -339.920633 -346.036050 -351.899632 -357.524640 -362.937211 -368.184981 -373.355385 -378.601613 -384.155680 -390.280524 -397.057399 -404.019626 -409.566615 -413.513667 -401.298852 -369.247080 -328.213555 -264.478909 -283.040366 -359.639518 -485.081647 -505.966480 -438.215439 -338.113901 -322.048566 -342.420177 -388.956719 -439.263917 -511.604220 -63.131156 179.852740 31.517712 -147.746458 -13.279799 498.434574 643.470922 772.784735 1505.009624 2214.991294 2035.268652 1360.634311 866.832099 709.702654 526.946806 638.296732 815.772466 1120.919883 812.751497 -231.017418 -821.930835 -1946.611413 -2445.648893 -2800.889829 -2976.533579 -2227.106903 -1872.257692 -2056.399902 -1983.809622 -1013.146332 -132.055007 -9.156124 -182.466188 -11.118924 200.421563 -58.707042 -60.265766 -64.050181 -69.619350 -75.596510 -81.823131 -88.270860 -94.933651 -101.806555 -108.883817 -116.158577 -123.622799 -131.267224 -139.081358 -147.053446 -155.170483 -163.418228 -171.781238 -180.242924 -188.785628 -197.390716 -206.038702 -214.709384 -223.382000 -232.035404 -240.648246 -249.199157 -257.666935 -266.030718 -274.270155 -282.365556 -290.298046 -298.049712 -305.603769 -312.944754 -320.058778 -326.933872 -333.560501 -339.932358 -346.047599 -351.910617 -357.534510 -362.945061 -368.189113 -373.352605 -378.588511 -384.131397 -390.251049 -397.063636 -404.137084 -409.905963 -412.214269 -407.152971 -385.838025 -349.034156 -314.162639 -325.981899 -395.187721 -443.368377 -402.505291 -336.232706 -322.029971 -352.406111 -367.168683 -386.145223 -422.646448 -466.351822 -382.365777 -136.824926 2.569612 112.847813 330.476075 397.820839 516.279882 847.249017 1243.689069 1576.254685 1605.066168 1290.130549 988.591465 774.430497 549.190658 468.086687 667.057834 901.381876 497.508514 -452.941300 -1239.496432 -2081.774234 -2728.357857 -3342.087017 -3914.071073 -4008.337408 -3868.503054 -3829.303242 -3732.153048 -3135.148135 -2316.668519 -1688.772169 -1304.262782 -813.237191 -243.536832 44.719923 -58.497950 -59.065458 -61.056453 -64.921283 -69.968366 -75.721908 -81.869629 -88.292047 -94.946785 -101.817009 -108.893216 -116.167385 -123.631116 -131.275044 -139.088636 -147.060131 -155.176519 -163.423561 -171.785814 -180.246695 -188.788549 -197.392748 -206.039811 -214.709544 -223.381193 -232.033621 -240.645486 -249.195427 -257.662250 -266.025102 -274.263637 -282.358173 -290.289842 -298.040738 -305.594084 -312.934429 -320.047900 -326.922550 -333.548879 -339.920636 -346.036058 -351.899648 -357.524659 -362.937199 -368.184857 -373.355003 -378.602578 -384.161259 -390.293399 -397.109628 -404.166495 -409.936801 -411.533961 -405.279002 -387.704376 -360.282957 -335.418763 -331.972081 -352.575492 -363.848705 -350.246489 -332.927777 -339.579613 -363.117725 -385.512584 -401.711249 -406.458058 -383.158282 -309.637823 -178.954791 -61.621910 51.519296 176.696038 284.521484 463.066009 738.942800 1027.680288 1270.586843 1339.245387 1187.997213 975.825355 770.629122 600.369993 518.644302 519.008871 431.165511 62.297068 -559.650743 -1304.088102 -2112.667418 -2860.692021 -3506.137722 -4017.088504 -4282.043565 -4381.639871 -4394.968269 -4237.703325 -3798.441273 -3156.113808 -2474.640550 -1797.895126 -1126.989341 -482.535005 -80.572090 51.010317 11547.293923 1612.450690 -3539.571388 6463.317788 3468.339021 -646.402197 9726.976426 8983.225833 9090.295383 -2009.760792 -3715.776722 9486.400592 6894.575327 303.661670 8680.609551 5317.808971 5269.088079 -278.488139 4435.433219 3021.823166 1304.605691 958.592854 8986.537284 -1552.168344 5515.306405 7411.213022 5830.622698 -2729.986418 9165.389720 9706.551590 10407.636706 8751.721304 10720.662441 9542.367127 10495.810188 2223.301191 3472.717715 11140.349447 10619.048513 9377.721921 10489.428787 -976.381899 3494.414665 8500.659330 1828.697389 11125.345763 -21038.425352 1598.055759 11165.001334 10205.179285 10397.843343 2481.383166 -4263.783598 2177.265510 10354.630622 6834.295868 10619.392530 9563.994798 5546.387901 3273.043903 -396.737161 11768.953050 -1038.632773 4139.325262 10861.868881 3756.016127 4734.898961 10282.377670 9883.953937 7315.395196 3461.188228 11382.126738 -372.300015 9972.831969 7855.776996 7289.402253 8670.516058 3908.053721 8622.105198 9547.298824 29030.608008 2728.839381 454.252382 10002.439910 350.025660 11846.766455 -3041.190131 14828.637616 13094.760856 1118.829849 9101.570211 9885.095457 542.166159 1879.938287 10000.948021 10091.100802 10806.476594 7791.677541 10669.503928 10851.963548 3359.532677 11197.999342 -5842.006114 1919.533229 11799.358293 -218.442285 5717.724826 19281.283011 6444.631410 10660.231494 5899.602577 13992.413444 2115.162725 5159.462165 6414.881880 8511.802387 11611.210862 10871.631661 11015.911989 2328.726527 -996.439831 10706.895412 6550.836691 8530.912454 11647.163414 9132.470465 7938.446755 10326.645908 31822.294817 -21659.272089 1537.091697 -11768.257762 3921.925489 11441.098668 -9184.261099 -17182.287500 8564.099478 11364.660519 10435.086172 11499.869434 8299.742826 -2782.309651 -4679.080900 6694.208975 4425.359144 -2430.395618 35077.820207 7655.000206 6834.174768 -20683.957502 2368.867667 6137.793087 11089.319133 -20118.476423 2755.769095 12663.634618 14416.175430 4635.500202 -1702.336932 9551.946885 5590.332955 5606.438404 4935.269357 -18960.679842 -15406.920161 -491.859805 7905.013621 -21722.924197 8635.714185 -1401.493012 -12676.681147 11143.252521 4295.936762 -1076.131845 14652.890136 -16707.138318 980.270230 14254.925526 8282.025605 10450.720561 9559.693742 6693.579816 5818.324957 8874.941450 13000.705273 8606.949556 -16337.972519 -3002.970283 3979.463679 7826.758702 3876.896847 2444.410019 7066.620318 12251.905856 3827.580252 -18926.762365 23330.946978 3183.764222 8413.806707 7750.561716 1894.717144 13308.893216 7801.651435 6941.818775 5681.337695 3960.775198 -1454.885425 5052.616495 4067.734424 -21024.885415 7245.468760 6859.550357 8797.689410 10563.247348 7050.948990 -21725.314176 8897.647593 5997.400480 2328.642433 7596.732529 8156.340314 -14833.950393 -17315.144928 9608.498594 4051.893510 4378.183992 6390.503160 7263.486527 7618.684722 9114.833132 8243.951046 16642.090164 5031.876354 4072.316514 6619.550838 7497.023557 -22410.837265 809.930129 7419.797644 9543.335739 -17541.343227 11493.943883 2168.534009 -1556.266384 6380.647921 30573.305226 8132.577858 8035.004111 7860.206582 5802.678296 3370.791928 7470.689372 4860.597633 6103.984142 8147.540775 4528.091800 22926.965401 11899.505371 12996.889460 7970.569584 3028.451849 6557.269687 8439.395617 6738.323139 6788.877763 6633.653982 8886.721010 6480.761438 6517.940962 8431.565412 6952.449857 6563.568376 7550.562864 9528.309912 6579.456191 7981.447633 8538.204772 10029.102350 6562.176024 819.618948 4000.332670 10691.397633 8033.397512 8389.441368 11787.537957 4317.511164 11056.758633 4712.098955 6612.236109 2873.830894 5443.419533 8512.060412 5790.266544 8643.612136 5524.783966 8391.774303 12935.126946 8100.904732 10606.479876 11351.284941 3768.122001 8091.524761 6689.902258 -2898.986783 5396.921370 8120.663758 9224.652136 6585.274049 5830.567900 9725.849489 11604.473888 12132.318812 18411.852223 7404.706589 5012.271858 7608.408282 9063.968088 8367.015347 4711.026274 11701.149539 6923.686990 9712.287093 13754.738160 8952.012040 6348.959329 -890.959541 7584.389703 6682.742267 10032.433550 8737.510696 13002.446518 11145.055091 13219.220520 9757.700291 9236.725257 11990.130599 5477.556782 2619.425930 21993.924797 20449.921599 10402.013360 6976.433353 5623.866913 6754.103802 6041.721093 4466.647491 13834.557344 12747.729775 12249.075445 10238.934972 8518.723346 11810.109300 6016.974034 13795.630864 12288.775985 12277.019326 4417.932306 13667.202403 11319.909040 -7753.091700 13054.562425 13788.950651 4967.870741 14100.243572 14110.723386 12353.032605 12665.144164 15721.057706 12031.873058 8660.571735 9062.170859 15718.008140 12124.529103 13525.800048 11192.111832 7906.414461 13284.563899 8866.226003 10465.863331 6987.865623 12338.251415 9265.828152 12383.076625 13612.677962 13170.269764 10412.074152 11767.019567 8793.271292 7267.902056 13119.408818 15245.973417 12770.215331 13194.124760 12573.915768 13811.075682 13225.912646 11386.377306 6052.050903 28317.258211 382.226077 11082.079870 8007.711224 14313.952121 11062.595634 8140.203160 13986.315177 14913.382681 9507.747764 9450.608886 11179.216617 13797.997480 9106.199429 14094.920973 10159.798733 14001.466761 13530.838094 13567.556919 13722.821683 12373.143497 5637.654676 14476.933825 10101.647838 13105.608899 6675.812780 7377.248583 10389.457864 11924.591366 10899.982710 12637.501208 9898.976149 11631.354041 13953.162677 10169.405681 14907.740271 13812.964257 13956.841775 11393.455766 12305.346433 8961.280628 442.496667 9392.474097 7756.496060 8185.599946 7433.947700 9040.018536 8114.481814 7767.882181 11948.636203 6361.767396 8436.218287 14868.658528 9386.691466 12093.548722 16466.466593 12815.481329 14455.716525 13879.017880 10819.073736 2418.967059 13744.314346 11307.098937 9987.184738 9609.278746 6406.039982 9617.018195 6474.997699 11004.126717 13027.861038 13720.599933 8594.933470 10759.352685 10458.655155 15120.239781 12476.835036 14165.413149 15398.660482 7252.142720 15275.057548 10961.907455 4662.622976 10985.123668 14672.074490 8551.528119 9693.893262 13088.014766 8338.971587 13256.007204 10817.193138 12263.147568 12632.835582 12738.463738 12445.558421 14273.864451 14109.035111 16319.508335 14189.519801 14425.207145 15333.667704 7283.042925 11109.710916 9297.540591 11923.663779 12574.007533 12127.997295 9628.350188 13403.258589 11264.701114 13524.861241 10667.132372 14026.367617 13914.180913 11580.584373 16258.789541 14277.787000 12959.542519 11824.351276 14301.272278 10799.013616 10652.537459 10791.680112 15158.897476 13252.072051 9636.000258 12657.479579 7373.131621 10790.138212 11652.695756 7522.620294 12296.185346 15117.002455 13345.783518 10389.278293 12800.022198 14153.998651 12138.671847 12461.472832 15772.583727 13046.624100 7645.557624 6269.396773 8861.319738 6682.060711 8688.357111 9138.261417 7577.624888 7390.031612 10581.332138 10759.474397 13920.630978 12666.349506 13234.672258 10334.944494 9543.603729 13877.386386 14960.555538 14250.155363 13867.613143 14832.357640 8532.082209 13312.240001 6251.877437 5961.250146 4368.635526 9771.318604 12079.339203 9640.483999 10066.216538 10488.596549 6050.202879 15079.858533 9094.101923 13840.916945 14556.144321 14669.407476 14322.343097 14403.053205 14563.600289 15976.354069 14330.624842 15296.835911 1284.552754 5321.785184 2302.916897 6389.372734 11443.546629 11433.452684 7482.176790 9862.105397 7996.534199 8529.954095 11342.155764 13031.293998 8483.999531 14266.811398 14310.441519 15448.233272 13427.047834 14064.627833 14732.168280 8133.847659 579.849747 1376.469627 1591.610172 4611.576781 2041.868400 6690.425787 8758.934687 13115.983141 6309.302256 8740.308191 7480.697887 7880.774482 10499.179719 9693.855784 13322.200271 15136.707646 10642.454333 15589.709657 7979.635105 14854.128542 816.293340 1502.449742 1523.361700 1159.214032 9920.386002 4024.521225 6930.615464 7558.418131 6419.581565 8916.254147 5321.417821 9181.365160 7645.076000 13464.041292 10167.371895 16423.399420 12105.793550 15431.064879 11747.882422 14146.898643 835.384434 782.143455 2111.579069 1771.173665 2354.058777 4308.155736 5098.786161 8152.224730 6247.615020 7226.583187 4914.779152 8110.947177 15167.174124 8673.563913 9566.018430 13084.384393 11622.406311 11856.595625 11475.329210 11885.137508 1118.524898 1194.372143 3319.174187 1413.813286 2436.433888 5730.763913 3312.914211 4557.225503 6618.533140 4519.136225 8466.930570 8148.155333 7643.044935 7199.107582 11398.762911 10887.566626 10576.206146 15593.064015 8594.590166 8738.046354 661.910635 1251.690919 1426.103239 1407.057607 3879.568520 3592.731193 5287.870634 8035.408139 5830.486059 7717.492399 8540.786902 9821.094432 9837.734680 11963.530274 12319.948937 16303.633662 14564.958280 16227.828732 11128.252277 11521.603155 2027.381610 3223.394396 2439.568810 1551.731327 2212.724475 1879.058175 2152.357419 3878.163274 3383.468708 4169.812876 10534.246574 8264.611083 10382.080381 6702.258506 9047.261798 13148.584