<VTKFile type="PolyData">
<PolyData>
<Piece NumberOfPoints="2186" NumberOfVerts="2186" NumberOfLines="0" NumberOfStrips="0" NumberOfPolys="0">
<PointData>
<DataArray type="Float64" Name="Pressure" format="ascii">
 25545.118101 25590.670047 24776.210569 24693.227031 24307.462804 24516.745245 24634.404696 24714.542450 24171.565229 23575.780354 23926.229073 24335.179274 25363.183227 25830.870087 25582.703921 25225.448633 24999.816894 25069.039262 25310.635180 25377.204504 24856.890924 24832.846796 24729.455306 24268.659162 24314.532158 24315.182548 25187.955784 25317.683967 25636.718386 25735.856921 25605.462518 25317.721101 25268.529655 25295.296328 25093.365130 24701.301482 24413.345398 24381.930487 24379.182819 24707.910012 25505.006391 26134.186241 26189.397984 25812.735984 25691.692458 25754.351654 25539.856484 25330.610156 25292.659388 25290.060219 24972.719051 24634.187778 24444.317098 24424.825873 25077.556791 25128.393068 25223.587027 25389.508264 25574.750233 25481.416278 25262.406754 25127.958723 25142.817227 25080.933034 24962.246194 25022.458754 25163.698880 25322.440959 25482.611055 25719.314107 25952.244056 25881.429118 25648.481071 25594.489863 25626.509763 25545.217076 25535.615292 25612.331458 25500.953139 25243.933136 24883.521906 24563.313669 24466.779830 24315.182548 24365.790702 24246.163214 23795.905660 23565.026428 23427.973626 22874.172792 22740.479339 22459.947695 21707.998887 21687.899726 21587.625248 21467.956290 21475.408541 21244.516453 20676.870104 20131.684418 20070.975768 20220.039452 20166.227301 19785.870491 19423.601656 19113.229554 18611.679705 18080.693057 17537.339356 17262.837420 17046.272983 16800.482482 16618.807353 16532.850578 16521.239934 16317.616244 15806.308849 15427.581758 15224.986271 15147.039724 14981.614681 14824.365699 14573.055360 14161.571358 13677.842072 13352.986231 13235.110996 13113.672254 12960.438537 12995.742933 13211.279725 13035.580874 12463.652039 12031.049735 11761.391786 11574.589368 11471.958633 11230.941268 11048.304430 10873.918533 10633.781469 10370.655920 10087.313382 9972.985520 9671.261777 9385.864822 8961.243205 8700.923667 8344.485041 7825.751200 7682.557904 7240.365970 7052.703404 6700.373340 6334.428485 5898.100757 5496.014869 4826.275639 4282.991097 3936.860989 3728.469830 3436.081416 3057.050267 2808.058046 24424.825873 24482.134253 24685.465726 24524.745953 23972.391354 23580.899297 23372.913301 22941.786779 22506.883348 22255.389022 22050.191683 21700.123437 21500.348153 21383.936272 21242.598219 20972.340037 20639.753229 20479.232940 20487.241219 20448.514782 20047.540856 19508.077079 19175.785216 18860.949940 18391.367837 17859.137877 17368.039637 17107.035448 16892.437596 16707.125902 16564.315748 16422.608491 16173.074857 15816.047514 15516.218451 15333.858192 15151.492935 14955.930636 14827.387557 14543.315091 14063.949002 13604.652997 13322.794021 13145.785225 12932.864591 12893.689001 12925.677963 12835.860110 12545.995102 12197.383479 11950.259829 11798.388946 11593.598949 11385.962091 11152.252552 10970.962270 10741.534539 10390.405297 10112.768585 10034.869180 9904.587301 9599.746309 9275.160103 8939.307792 8659.227659 8377.294571 7948.247207 7484.457962 7182.705057 6876.756655 6498.444355 6127.746882 5686.421573 5163.650595 4685.007382 4265.952917 3920.878204 3641.000162 3337.637639 3009.899614 2866.149632 24466.779830 24354.351687 24148.377508 23946.002081 23617.046215 23301.742206 23225.100923 23066.250118 22674.468482 22335.290340 22014.689750 21747.559392 21596.342239 21420.272360 21164.396119 20856.154598 20534.813157 20246.720881 20029.539163 19845.895376 19551.638045 19155.512617 18822.295423 18560.417739 18255.328542 17892.882721 17521.079798 17236.743048 17046.489428 16887.412884 16727.038842 16545.395005 16321.553798 16042.101180 15743.276485 15497.711543 15294.531633 15094.269891 14860.314527 14535.708310 14142.480463 13755.994519 13428.763300 13181.296298 12988.862729 12862.789113 12779.525975 12665.858192 12498.641605 12291.828886 12074.639032 11875.959901 11678.066254 11468.156455 11254.574515 11041.509083 10815.364321 10554.996008 10296.190528 10095.225254 9918.835264 9694.008838 9425.361397 9155.405343 8881.062528 8583.271385 8232.657468 7829.983990 7437.478719 7073.988946 6704.948897 6313.859726 5893.513125 5436.606358 4971.071727 4537.612428 4155.151445 3823.149402 3521.138629 3229.723628 2986.608891 2902.374625 2808.058046 2591.162889 2258.848534 2012.039219 1851.895986 1721.792584 1585.342693 1477.731362 1395.308443 1339.430213 1305.313018 1277.714249 1254.294182 1230.046353 1205.770905 1181.794231 1158.254478 1135.229500 1112.766609 1090.888844 1069.592399 1048.828668 1028.436419 1007.815286 986.056204 973.715527 2866.149632 2764.990973 2578.415878 2316.332275 2077.880780 1893.348059 1752.090236 1630.625079 1521.496280 1431.858849 1364.690348 1320.965412 1290.713240 1266.233644 1242.348764 1218.678090 1195.309037 1172.324226 1149.792108 1127.764051 1106.274051 1085.339281 1064.961393 1045.129023 1025.828541 1007.110908 989.614066 977.868824 972.917443 2902.374625 2851.648691 2747.444474 2561.501954 2324.332841 2096.696174 1908.665637 1761.163800 1637.995726 1530.035753 1440.478985 1373.018461 1326.172973 1293.453707 1266.907755 1242.280431 1218.370270 1194.897273 1171.846790 1149.261393 1127.185977 1105.653903 1084.685804 1064.296521 1044.518626 1025.473230 1007.571463 991.874476 980.072411 974.149069 972.419297 973.715527 962.652393 943.726785 926.825412 911.035931 895.769406 880.841716 866.170731 851.708657 837.421271 823.281636 809.268082 795.363460 781.554743 767.832730 754.191775 740.629507 727.146572 713.746372 700.434821 687.220118 674.112533 661.124215 648.269019 635.562349 623.021024 610.663158 598.508058 586.576136 574.888842 563.468599 552.338759 541.523566 531.048129 520.938405 511.221183 501.924085 493.075558 484.704889 476.842206 469.518490 462.765597 456.616265 451.104142 446.263799 442.130757 438.741508 436.133536 434.345347 433.416489 433.387584 434.300346 436.197619 439.123396 443.122855 448.242383 454.529614 462.033452 470.804111 480.893146 492.353489 505.239485 519.606930 535.513111 553.016847 572.178529 593.060168 615.725440 640.239730 666.670187 695.085774 725.557319 758.157578 792.961285 830.045222 869.488277 911.371514 955.778245 1002.794100 1052.507111 1105.007793 1160.389235 1218.747193 1280.180200 1344.789677 1412.680062 1483.958954 1558.737272 1637.129456 1719.253710 1805.232381 1895.192669 1989.268375 2087.604950 2190.375243 2297.830284 2410.467652 2529.579672 2659.688025 2808.170127 2895.974099 972.917443 968.629365 957.706392 942.141572 926.379095 910.892818 895.718033 880.819203 866.158055 851.699881 837.414437 823.276005 809.263297 795.359285 781.550989 767.829232 754.188380 740.626079 727.142984 713.742510 700.430581 687.215405 674.107261 661.118306 648.262402 635.554960 623.012803 610.654051 598.498014 586.565108 574.876785 563.455470 552.324517 541.508171 531.031544 520.920590 511.202101 501.903696 493.053826 484.681775 476.817670 469.492493 462.738099 456.587225 451.073517 446.231548 442.096835 438.705871 436.096138 434.306142 433.375429 433.344620 434.255429 436.150698 439.074419 443.071769 448.189135 454.474147 461.975711 470.744038 480.830682 492.288574 505.172058 519.536928 535.440470 552.941501 572.100412 592.979212 615.641574 640.152883 666.580286 694.992744 725.461085 758.058059 792.858403 829.938894 869.378419 911.258041 955.661067 1002.673127 1052.382251 1104.878950 1160.256310 1218.610084 1280.038803 1344.643882 1412.529756 1483.804014 1558.577562 1636.964806 1719.083858 1805.056775 1895.009832 1989.073840 2087.384492 2190.082694 2297.314316 2409.224191 2525.907596 2646.868204 2768.026456 2853.511019 2887.227180 972.419297 971.019435 965.558580 954.744268 940.998867 926.003291 910.783316 895.692012 880.817995 866.163460 851.706429 837.420588 823.281426 809.268018 795.363441 781.554737 767.832729 754.191774 740.629507 727.146572 713.746372 700.434821 687.220118 674.112533 661.124215 648.269019 635.562349 623.021024 610.663158 598.508058 586.576136 574.888842 563.468599 552.338759 541.523566 531.048129 520.938405 511.221183 501.924085 493.075558 484.704889 476.842206 469.518490 462.765597 456.616265 451.104142 446.263799 442.130757 438.741508 436.133536 434.345347 433.416489 433.387584 434.300346 436.197619 439.123396 443.122855 448.242383 454.529614 462.033452 470.804111 480.893146 492.353489 505.239485 519.606930 535.513111 553.016847 572.178529 593.060168 615.725440 640.239730 666.670187 695.085774 725.557319 758.157578 792.961285 830.045222 869.488277 911.371514 955.778245 1002.794100 1052.507111 1105.007793 1160.389235 1218.747193 1280.180199 1344.789675 1412.680058 1483.958939 1558.737224 1637.129299 1719.253198 1805.230708 1895.187206 1989.250539 2087.546716 2190.185084 2297.209318 2408.438847 2522.969400 2637.738693 2744.234302 2828.577470 2871.282778 2882.418472 2895.974099 3001.843151 3194.390904 3380.341397 3566.074966 3756.754967 3953.932086 4158.313836 4370.365672 4590.500565 4819.138244 5056.723130 5303.724672 5560.624102 5827.885755 6105.911141 6394.978781 6695.182859 7006.400298 7328.341930 7660.793350 8004.297633 8361.989868 8749.952541 9084.770558 9400.956509 9894.049729 10215.809323 10654.111236 11469.492800 11930.914337 12444.418958 13320.560841 14024.513047 14710.790824 15215.186597 15707.776086 16605.758215 17481.445836 18188.510616 18871.432330 19690.219198 20415.498384 20976.563186 21535.169427 22043.646245 22384.842649 22913.802019 23270.665810 24674.363046 25545.118101 2887.227180 2932.795161 3044.205481 3208.185158 3383.914202 3566.952573 3756.816698 3953.737858 4158.031641 4370.046089 4590.158228 4818.776760 5056.342930 5303.325788 5560.207510 5827.454275 6105.469813 6394.533680 6694.735423 7005.928598 7327.741960 7659.691209 8001.421837 8353.524375 8734.013303 9068.003130 9360.507325 9828.940124 10171.476355 10591.308231 11355.397193 11849.597983 12362.541159 13231.766355 13951.226844 14618.892821 15183.638726 15666.741531 16523.930909 17396.435343 18138.742695 18870.803442 19636.338328 20318.919298 20925.057080 21553.197004 22153.650679 22515.565247 23048.244948 24085.175980 25071.696207 25284.810055 25187.955784 2882.418472 2898.835576 2957.017590 3070.456981 3218.694389 3387.677179 3568.340471 3757.452301 3954.146866 4158.379991 4370.386051 4590.506841 4819.140169 5056.723696 5303.724754 5560.623823 5827.884662 6105.907469 6394.966584 6695.142336 7006.265550 7327.893554 7659.301234 7999.322032 8345.445990 8697.504603 9034.674944 9353.332897 9752.649601 10146.461613 10612.662476 11232.958014 11797.630210 12399.531759 13176.719778 13904.151062 14557.973130 15163.990135 15764.318171 16548.940233 17353.612234 18114.681174 18863.345933 19605.597283 20266.052353 20858.617389 21506.307743 22247.656459 22959.894705 23629.784787 24418.441653 24963.541815 25095.732723 25083.736061 25077.556791 11909.270641 11920.833649 13286.416529 14025.973174 14719.756254 15333.989818 15337.180473 18936.170470 16763.351256 14788.017982 19973.954245 20281.288421 20961.452614 21925.338407 21996.901141 21471.687403 22571.527781 22749.230514 22581.623747 23558.509089 13588.885665 16763.965281 13686.854022 17944.158064 16029.714647 14709.363174 15152.536617 17465.225259 18658.310275 17959.765380 18526.687263 21306.299030 22479.944058 22263.063618 22558.440354 21083.979560 22475.484298 22226.539982 23755.166050 23921.240404 15680.933044 17325.519737 14381.568400 19560.073587 15196.122952 17712.015184 17485.347436 22087.446142 20056.261248 20760.067159 21121.917605 21500.067554 19926.372494 22018.548099 22369.491943 22002.768085 22073.211819 22887.999938 23906.987481 22452.762819 18287.632147 20111.213850 15800.641919 16603.821044 17207.851542 21875.723131 16272.941829 20608.991297 20045.365041 21243.249486 21840.505009 22833.261717 22717.813681 22030.699668 21254.667401 22555.798244 23182.793598 21954.675692 23772.178288 23088.461700 19195.372635 21761.845959 16530.800859 16932.253917 21275.615803 19464.223553 16868.353160 20467.023079 19571.998703 16222.868901 22460.836665 20387.111874 20552.490133 21906.361919 21348.191899 23033.101114 22047.781101 22542.785308 22598.936037 23362.017877 14255.171780 18062.118794 15287.294100 15250.737485 16707.215465 17383.551493 19025.901178 21953.725262 18962.195235 19038.240388 20975.212755 23640.045899 18269.007324 18082.606544 21936.448596 22772.194030 21947.004613 24150.931289 23554.979880 24261.010182 19005.776575 16700.010433 18003.968334 18152.528014 15473.497919 20526.075630 21166.029524 20544.121036 20067.713250 16559.035915 21420.006029 21514.172605 23886.887312 22382.451151 20643.650621 21566.194147 22876.793189 23845.500171 24099.913905 24182.954273 18420.277144 14909.707610 16515.273440 18393.084349 17294.614054 15820.595474 16561.402225 19061.741079 19917.223313 17191.385492 22097.857324 19994.827328 21257.427646 21907.445502 21970.823426 22818.207271 21914.410656 23415.619112 24784.633292 23717.241711 15574.510249 14502.340910 16403.675599 14182.581180 18062.889407 15691.316614 18286.489498 15695.358327 15972.373893 16541.459319 15929.166703 18091.272958 19289.488279 20758.091164 21367.279295 19208.736531 22118.173531 20042.822107 23616.057080 23822.310308 14720.424879 15574.448077 19627.568627 15904.550186 15915.095717 17740.619591 15105.181258 15297.875617 16550.719955 21697.191011 20233.421986 19209.793172 20766.834421 19872.034788 20148.887359 20961.321847 24727.281272 23602.490899 20929.030804 24609.006793 17841.943895 18374.772118 15485.099269 17533.079482 18315.987096 20065.404625 16558.616068 16573.237234 19007.170892 19125.214064 17371.944140 22899.567879 19152.669216 23785.847635 21173.637888 22763.603342 21017.486972 23026.571509 25169.377681 23764.589001 13612.033122 13632.582031 15764.965755 17192.594579 14910.715024 16936.319959 16129.405953 14239.573497 15987.357148 22795.467284 20157.599568 16169.704197 20140.885245 18982.435508 18147.036392 25567.350457 22562.357793 21127.494998 23714.460794 25726.424600 15573.756924 14355.817854 15435.312735 16503.876930 16639.295425 14939.738157 15626.743640 17123.418377 17095.223031 16556.150823 14992.388572 21160.945394 15899.366056 21089.759047 20892.392916 20048.220893 24071.334393 23157.383708 25160.704670 25588.737407 13978.799245 14584.683146 16598.221645 14582.759028 15667.241102 17515.672709 16292.534501 17268.409015 14510.737691 19219.888713 18498.709925 19201.021833 22993.112286 21043.525770 21036.809035 22014.794583 25612.102686 24906.009255 25662.756942 24760.566019 17361.525215 14153.917882 14132.096990 14539.285278 15864.486951 17879.536551 15029.074880 18588.580482 18593.209447 17373.856332 19882.489168 17916.427496 20460.215057 22876.557350 22727.892563 17353.954960 20063.917565 24475.354965 24040.429480 24226.749451 13745.090666 14298.167469 14230.376114 14736.091277 16468.167586 18884.322249 15184.213634 14567.704268 17596.311572 14882.940888 17725.993957 16245.448618 22819.215058 22161.428434 23226.249015 22523.013106 20103.598955 23027.821374 21841.165458 24114.447570 18045.688574 14521.699499 14523.002980 14200.865930 15822.866664 15239.417313 15442.584911 17168.124332 17091.868106 16188.773755 15426.796371 20958.376236 19205.182701 22572.152346 17983.179035 23020.742297 19212.788112 21980.817836 24962.713480 24921.044993 12021.395804 14106.466738 13672.031098 14575.347967 14747.928686 14812.743333 15764.058484 14984.332157 16225.367531 15460.362748 20435.682961 16680.576610 16447.614229 16562.251022 21975.534570 19279.524299 21679.873878 23405.900895 23154.812102 25002.024546 9166.547520 13695.158276 14037.671842 14721.752649 14449.708749 15008.024445 14865.615351 15813.397248 19018.272311 19929.898212 18544.858507 19228.053758 23861.466714 19045.081753 22164.972595 23225.109595 23730.589091 23078.630030 22177.864651 23243.907539 13876.717214 13975.832814 13580.697697 14325.826446 14900.491971 14529.474989 14344.115420 18810.325029 16370.123369 15739.839630 19009.735568 17002.700954 24160.676867 21644.416967 23729.570105 22182.709016 23607.790979 24591.963491 24849.373781 24926.966462 8032.756837 12496.496507 14548.689689 14290.676166 14357.623375 14698.859579 15018.599609 15369.616574 16202.053976 18035.840295 17308.694935 16519.765870 18293.513245 23209.536341 18423.383446 19717.173492 21754.638502 22539.802530 23123.344290 24272.306835 11030.485832 14157.458230 14215.299182 14537.233482 16412.381266 14685.845884 15146.103700 16387.440562 15360.344489 15219.106461 20916.669634 23282.693024 21168.351952 21376.351432 22017.884249 17854.470643 22289.605154 20217.844344 24125.105161 24005.457596 16197.401055 14450.164411 16383.195841 14594.222229 15083.755206 14534.138541 16171.020259 15110.650067 17761.853567 17790.305087 17278.087392 20637.884059 17693.176465 21943.400183 15797.738094 22941.352934 23820.040338 23109.367099 24496.010639 23913.573120 13921.324445 14557.916559 14038.321017 14505.310984 15254.361287 14740.333729 16823.686848 16161.658402 15474.281386 17916.858195 20052.720024 19351.170148 20073.662996 21629.031168 23674.753575 24201.293529 24282.274676 24389.071411 24227.637358 24409.111330 16211.016311 14395.453382 13512.588581 14750.865213 15664.444434 14622.138725 15241.375405 16808.783583 15457.171904 15658.000309 15533.744355 19866.445373 16118.293852 16574.768278 21488.518233 22700.672533 23690.085838 23188.249186 23159.860504 23453.708391 14376.834462 13638.748586 15184.514248 13994.154397 14836.871997 13969.344444 14757.737870 16631.642591 15750.506356 17944.487388 17665.262071 18104.151358 21916.436346 19973.834337 16259.147308 22003.289342 23073.704110 22278.828904 23713.424806 24409.280970 6782.079181 13481.308987 15604.847322 14829.445223 16153.574167 16751.840582 15082.980052 14586.655435 15698.259866 17070.021156 16608.151616 17683.664546 17672.977374 19447.591558 22438.672343 22710.128687 22541.170725 23606.358456 23247.167853 13572.214151 13709.117614 13502.500999 13741.254044 14885.987143 15852.776256 14413.018491 16469.666774 18638.745162 16089.896334 16901.470848 19193.925052 22457.127250 17011.748172 22122.972298 23201.558987 23075.642787 20912.095919 22959.105941 14033.689898 13411.817502 14933.787498 14150.581642 15563.358553 15546.385366 14215.754786 15699.675609 16808.021315 17492.013579 18732.943946 17477.215703 20743.013264 16225.370181 21541.316198 23221.254279 21887.692518 22346.737379 22953.736485 12086.345413 13853.396693 13887.626758 13671.021259 14869.251092 14447.527037 17744.823919 17280.625465 16611.516431 19266.305846 18274.159273 17158.360929 17602.618808 18793.426672 19998.181521 19369.989482 21231.459216 21049.711606 22832.417688 14011.599570 13703.877259 14407.522284 14569.451711 14277.529913 13855.575369 15346.239603 15923.539460 15398.635306 15412.092194 17387.913919 15115.152651 19732.878011 17995.451584 18279.676983 23064.406375 21823.972057 22673.896888 12768.093573 13995.884119 13693.314181 14002.354341 14621.726920 14445.617946 16197.622910 15473.775415 18455.811378 16919.411766 17093.779140 20440.164820 18807.722865 21388.134126 21409.453807 21816.064219 21371.131053 22007.548806 8373.157080 13545.803254 14233.661915 16053.374985 13658.390851 17826.946381 13794.286258 17203.127209 15873.552587 17889.145875 19727.957151 20544.315292 18158.970725 21916.048681 17151.468585 22433.242474 22822.909566 8655.833415 13626.831982 13632.622161 13685.014316 14407.856504 14907.760301 18516.467137 14282.540361 14899.825912 17748.794948 16071.250875 19503.010707 22938.046947 21344.038972 18478.339127 20685.931352 21478.272682 14456.090468 14121.535145 14727.310401 14190.458694 19238.585656 21214.087364 17129.406794 18203.353679 16645.780499 21784.248647 17032.531864 21859.664908 20559.477657 22001.308778 21214.762504 21240.977082 21514.872056 21517.505929 14466.975817 14208.823791 18802.889807 13551.034120 14160.548266 13779.010773 14693.446526 17145.342023 19442.127393 20318.568112 21683.286501 19674.879710 22050.155637 21021.980130 21217.541287 21359.128455 13808.198160 14100.682392 15720.761822 13977.339178 14691.786874 19376.736475 16281.189813 18988.995993 19833.926401 14952.192233 20742.825280 20422.210932 21868.441773 20599.007610 16538.645456 19738.566610 13498.319413 13963.270538 12286.990087 16382.053009 21914.808671 19383.371611 19150.780269 17524.208927 18993.729437 17176.740688 17581.560750 21773.972490 20532.557301 21907.086954 21421.300466 20959.361671 14274.369536 10611.508806 14173.990767 18943.211020 14776.279953 15205.582745 19939.668499 14840.482074 15033.054217 20085.168004 18745.513093 22094.256885 21405.259928 21933.091759 20006.988234 11097.962788 11275.033130 13872.885822 13054.599782 17171.604169 14025.525690 16547.017417 18492.579386 21291.140834 20268.108406 19493.102870 22343.722481 20028.091338 17531.198166 19494.644533 14241.684732 7430.698870 11735.562407 14061.437517 15471.776068 17232.300091 14041.342222 18374.398698 21744.625806 17002.011278 21997.754214 17470.669675 21280.702018 20174.703829 19474.959306 8328.515189 13985.287085 9910.534700 13821.737289 15896.549395 15547.923078 16509.566553 17593.200724 17116.353632 17568.746290 21793.961376 21853.213146 20689.774429 19644.583139 15372.607890 11555.570274 14185.395627 20751.141381 18573.333336 16215.956414 14045.925195 17308.615411 18051.447710 21337.829910 20243.634658 16779.215140 19635.316097 19335.573691 12948.126530 9731.193998 14469.615275 14896.879223 19534.514325 13994.879269 20385.422167 17657.831667 16118.996775 15797.400963 19535.635836 19768.103335 17918.685818 18905.210368 11438.108009 18565.778186 12772.408795 16732.086040 18152.249565 18053.275651 20966.921637 16712.421152 18759.857922 18572.840679 21839.104032 18815.474872 18630.171467 18285.704542 15009.322190 14614.311859 16915.099939 11531.410567 18127.360283 14307.611385 19072.516686 19513.387658 21117.456800 20700.360598 20403.567122 18249.223162 14100.850077 16082.599721 19788.176153 16605.831098 18242.385797 20945.099217 18899.194485 14191.907080 20163.182900 18718.422967 20230.661879 17568.190114 18085.957351 16381.354892 14570.727996 14737.259842 17645.268114 13589.766993 18986.715328 14388.637774 17531.737403 18571.768427 17679.564196 16666.918626 18285.101722 13690.145535 14610.608119 15508.479960 13367.910204 9486.098054 15398.883707 17033.199828 20706.272858 16021.244101 19462.624080 17825.733995 17167.751381 14239.214837 13728.505112 11501.526495 19413.542394 10838.846956 19881.714369 20160.951989 17927.682330 19106.265409 19705.008127 18827.423238 17165.619580 17167.460294 7654.656399 16773.320126 15891.791358 18535.092851 15803.655605 14991.861946 16808.100191 21830.605028 20875.144625 18983.204513 20914.766255 17003.464605 7857.282442 13308.598801 14718.392383 19745.344975 19768.263306 18747.995852 7354.095722 20633.767270 13843.913548 16628.385096 11176.993783 13847.935156 13719.036576 14415.178622 8019.091574 18904.915327 16710.639848 19735.611441 16553.056594 18271.760414 16589.772632 13696.548223 17007.729128 14771.490976 16302.947980 17664.507151 13919.415576 16887.203083 19028.597600 18345.645171 16490.217884 14983.166056 16059.084324 13917.554080 17684.157896 17979.977258 17891.306568 17478.435908 20673.507168 21201.628919 18608.527763 1457.701970 9997.518837 7298.186419 17746.998184 14584.495811 18642.121131 14985.869638 20206.694050 18717.322299 15625.519166 5202.423825 16614.964653 15326.514666 15889.629357 19084.462723 16903.871622 19128.729867 19495.894394 15440.091782 11527.634629 11532.728209 16366.075737 14020.501379 16201.723616 20651.184980 17596.450986 14695.443051 15998.795419 11332.009046 11210.969895 16655.916739 17646.151018 19962.011492 18175.156585 19996.629918 19215.718518 15257.589779 13548.778602 16435.983717 15500.095570 16671.323842 16048.641769 16531.247353 16324.138779 21153.985600 5949.160128 12183.682055 10375.797103 15794.539363 20119.654450 16566.188222 13355.858267 17063.847365 3893.448117 16485.074452 15448.883006 16753.835713 15224.877908 15550.632764 20004.443542 14387.197577 11579.669525 6434.467820 15718.478452 16980.380710 17341.493265 18726.151821 15428.369291 12886.547939 13766.574020 13537.057675 13222.885154 18639.595694 16205.377768 13287.090408 14064.470513 12005.152738 17754.724761 6627.680522 17598.001594 17937.318007 13286.045883 13285.950631 8969.741655 15762.429432 17805.788287 14989.169642 13078.302923 17070.601766 1345.845569 15318.747368 16846.365954 18226.675478 15272.061202 19767.690208 12795.653667 17283.137229 15158.261587 13913.305341 15420.660701 12986.053930 1845.770638 16302.840920 15611.527533 17908.108984 13351.905530 11706.932568 17216.878755 16003.176551 15564.417230 18722.772008 8300.301168 13828.920842 13393.090024 11031.064006 12784.708172 12935.061111 12242.987981 13199.424268 15231.828659 12273.197564 7144.559480 13293.443053 15626.955886 1982.974949 13192.338844 11827.162524 11520.369297 14717.138064 15662.879533 16428.608870 11516.924247 15132.267100 7387.887791 11051.442257 13562.782378 14713.882740 11004.325952 13973.971852 17952.365932 8795.799324 10752.972732 15500.357450 10272.023191 15924.958785 9470.339068 9402.311796 12714.512715 15593.064659 14207.176281 14806.569130 12676.873098 13086.960558 13392.274716 15177.227327 12670.213309 15890.325393 9166.549903 15295.789078 10186.277554 10201.085414 14267.264429 12068.937204 14279.944317 13252.430151 13887.506229 14267.301433 14644.115065 14600.015649 14973.793376 13706.204377 17253.972388 15673.462883 13843.360747 13636.564350 14489.986200 14792.536774 14826.900703 11731.657910 14028.517280 15260.130418 16095.791873 14159.325919 17209.691633 18440.070752 15775.144764 14499.452232 14144.235774 12172.709961 14553.557392 14318.630652 13776.540764 13394.677715 12066.655835 11331.103628 13460.636057 14061.391143 16533.261188 12848.421143 14021.535172 17208.546062 17832.808054 15779.872334 13314.782173 13888.215657 14978.996771 15351.016773 12743.789143 14047.354826 15083.688046 14117.785807 14271.271376 14406.614187 14938.372531 16330.042000 15558.138259 14083.061467 13979.408779 13784.152978 16420.546603 14521.437533 19961.735434 14435.832028 14252.492064 13127.098206 13772.387476 13424.194899 13414.055669 14779.757103 13657.402817 16008.662678 14791.917138 14587.574791 14558.684617 15786.314502 15989.163675 13882.678851 13644.512340 13920.464440 13526.596012 13923.217852 13467.198053 13509.866812 13893.184539 15243.131468 14844.700621 14980.462597 15122.506389 14661.397107 14762.583554 14998.385997 17366.988841 13269.009083 13971.187598 13205.048727 14718.935067 13905.293699 13509.520981 14364.739637 14576.563573 16763.768028 14633.616741 13694.002397 14273.608397 14441.506755 14545.160433 17145.991399 13817.872103 13276.382647 13000.121492 13914.500018 13397.403591 14401.024258 15072.531948 13521.439239 14131.905498 16979.870734 14097.541450 14039.634977 15161.454226 15207.615449 14935.389314 13782.702321 13500.902807 13918.695112 13346.194144 13993.586545 14946.598830 13751.713172 14243.171728 13213.486273 14570.180621 14908.706718 15446.564321 15488.955485 18003.470990 17183.676294 14974.508576 13756.248492 14129.638127 13747.519777 13685.796713 13964.358595 13244.372818 14118.515849 15539.455959 17115.279682 14524.270004 13802.693279 14218.801964 13932.208670 16738.382318 14123.545549 13870.937073 13809.569849 13457.613971 13866.578180 14493.589312 14662.636150 15357.938751 13677.121543 14229.753551 13605.680977 14672.021183 15979.187486 13843.986387 14752.972784 13554.348572 13522.276430 13071.348756 13424.573109 13309.223291 14497.849711 14415.778003 14561.342077 14317.256904 14472.057825 13562.561186 14830.285199 14510.880594 14422.550207 14158.233384 13191.986510 13706.364077 14171.679398 14318.618557 14302.926939 14433.242322 14518.750868 13880.201015 13916.247799 3671.212408 13353.465491 14406.526901 13414.953251 16186.062037 14275.795799
</DataArray>
<DataArray type="Float64" Name="Velocity" NumberOfComponents="3" format="ascii">