<VTKFile type="PolyData">
<PolyData>
<Piece NumberOfPoints="2186" NumberOfVerts="2186" NumberOfLines="0" NumberOfStrips="0" NumberOfPolys="0">
<PointData>
<DataArray type="Float64" Name="Pressure" format="ascii">
 28350.740097 28078.842461 28014.220112 28214.023867 28721.605759 28968.689510 28751.266193 28394.087383 28660.225248 28743.764209 28481.857191 27758.785642 27398.784456 27403.247615 27444.532928 27326.307901 27653.052279 28595.144515 28727.438495 28673.965611 28244.966816 27801.322382 27465.188311 26671.349016 25767.757303 25232.405634 27690.631053 28012.094658 28000.399765 27989.297102 28372.689794 28828.772632 28906.171991 28776.301328 28819.492232 29146.209911 29263.936712 28800.828639 28038.205779 27606.954972 27751.549513 27897.273279 27994.334504 27930.898906 28132.468789 28561.789483 28980.213686 28987.704757 28480.729466 27901.803219 27373.419409 26683.608176 25777.802407 25352.883970 27498.368072 27549.478603 27702.524066 27834.259489 27935.096937 28114.758298 28216.565986 28120.413195 27972.848721 27989.173661 28173.147193 28321.187924 28257.806001 28060.327097 27917.177456 27895.279422 27975.179498 28167.924272 28421.525649 28573.922649 28624.418409 28513.615237 28232.638872 27861.659229 27411.718693 26881.384111 26231.380734 25612.136870 25435.709428 25232.405634 25086.573224 25285.593186 25511.020660 25475.587321 24808.225589 23993.952838 23502.981401 23206.434514 22717.385274 21861.724148 21553.730939 21741.569668 21816.806956 21534.288537 21212.035710 20858.845581 20456.685898 19886.233321 19328.192584 18841.679575 18216.926853 17832.191977 17700.816445 16621.911241 15958.955499 15197.146519 15009.997404 14703.979089 14409.174708 14285.435131 13903.305528 13742.373623 13280.249713 12499.791913 11686.826737 11816.855943 12497.025653 12606.229176 11806.865800 11168.526867 10931.795772 10455.055739 10139.143008 9750.020920 9438.403878 9202.322352 8823.601351 8807.691043 8975.333740 8970.976300 8998.353887 8968.638619 8845.705327 8749.216673 8747.640171 8549.230501 8390.051075 8184.254308 8003.916973 7691.772670 7538.264065 7644.751557 7828.811595 8190.139742 8230.498410 7985.058868 7999.747733 7932.751036 7969.145287 7917.110528 7538.978243 7390.159387 7704.864164 7499.386330 6776.751606 5719.206211 4362.741600 3329.720921 2727.873825 2578.167115 25352.883970 25089.001490 25016.354876 25357.172241 25469.302927 25007.608307 24381.063509 23892.486208 23261.362358 22483.774162 21880.005068 21726.441899 21833.604280 21836.099324 21475.903626 20983.336826 20630.342898 20435.495635 20203.226234 19671.008194 18949.795681 18402.019872 18130.957153 17974.714365 17383.587774 16240.632226 15343.928692 15065.334666 14890.123129 14787.856280 14626.585333 14199.627633 13590.062814 12976.882291 12493.418907 12196.757458 12287.272998 12530.060728 12384.936852 11802.773323 11210.930430 10783.220915 10395.596180 10063.073747 9788.689848 9598.038577 9333.348192 9120.760822 9097.575589 9131.658905 9094.291422 9007.990827 8948.508971 8932.756015 8925.576872 8794.366929 8558.168075 8384.385543 8243.216290 7987.469542 7750.545643 7646.201072 7664.052298 7731.014949 7769.192312 7743.745441 7684.993123 7766.949525 7928.807435 7736.507822 7305.523944 7082.061582 6986.254168 6931.918204 6797.082148 6140.571988 5028.135352 3966.709120 3243.392138 2819.875151 2681.258736 25435.709428 25450.094688 25522.485660 25591.886655 25456.322823 24978.458089 24311.990887 23691.600349 23156.477401 22676.207779 22317.167868 22040.763552 21810.200152 21624.885196 21414.025978 21109.690808 20768.377874 20442.030952 20171.055715 19852.111805 19325.664119 18729.044695 18177.280338 17656.908469 17142.821566 16446.792991 15723.585926 15223.832403 14881.078606 14618.824773 14426.994603 14216.845973 13829.120028 13336.482510 12927.417940 12694.892029 12536.243260 12326.723248 12024.259361 11597.859075 11139.554824 10761.997933 10465.828629 10224.905828 10011.835506 9806.895209 9594.937082 9408.934683 9298.395466 9236.542267 9166.274857 9076.855739 9000.368285 8954.546073 8916.586142 8833.577706 8678.183740 8490.921495 8320.508316 8154.123730 7979.298992 7832.849730 7746.634913 7710.016024 7696.875248 7680.535192 7646.245083 7629.743209 7635.385420 7553.710738 7316.497044 7018.902783 6774.060922 6588.141405 6381.264166 6002.702292 5363.338938 4574.616301 3831.225285 3246.149293 2860.182689 2743.134097 2578.167115 2418.676444 2171.394117 1983.408758 1865.664335 1777.635128 1682.973110 1602.656488 1536.890477 1499.168509 1497.761487 1500.051625 1496.785490 1487.628062 1475.208244 1461.066308 1446.158944 1431.061296 1416.056468 1401.208246 1386.424660 1371.496629 1356.069388 1339.336009 1319.951405 1308.122777 2681.258736 2570.647377 2419.216747 2219.312692 2037.873145 1901.020996 1802.413793 1719.427449 1641.225935 1575.270630 1529.370315 1510.033381 1504.710470 1500.917087 1493.210753 1482.263874 1469.274344 1455.187758 1440.666867 1426.108149 1411.686722 1397.412068 1383.183268 1368.837113 1354.192871 1339.144224 1324.208175 1313.904780 1309.772808 2743.134097 2676.337396 2568.513755 2412.156248 2228.077958 2054.989507 1915.966693 1812.013208 1727.024331 1650.629036 1586.760686 1542.473923 1519.021078 1509.022200 1502.137986 1493.362228 1482.105983 1469.008578 1454.868993 1440.310163 1425.717078 1411.261318 1396.953748 1382.705674 1368.399455 1353.998203 1339.783747 1326.774645 1316.772862 1311.902226 1310.620324 1308.122777 1292.558934 1264.192289 1236.724781 1209.298526 1181.227321 1152.365061 1122.701857 1092.276581 1061.149125 1029.391368 997.083650 964.312841 931.170861 897.753278 864.157931 830.483574 796.828565 763.289629 729.960738 696.932097 664.289281 632.112499 600.476014 569.447685 539.088649 509.453114 480.588262 452.534248 425.324277 398.984761 373.535521 348.990057 325.355841 302.634650 280.822922 259.912125 239.889140 220.736650 202.433519 184.955182 168.274016 152.359706 137.179592 122.699006 108.881585 95.689576 83.084100 71.025421 59.473165 48.386544 37.724531 27.446036 17.510041 7.875728 -1.497426 -10.649566 -19.620397 -28.449142 -37.174512 -45.834695 -54.467357 -63.109646 -71.798217 -80.569252 -89.458489 -98.501245 -107.732440 -117.186607 -126.897893 -136.900038 -147.226327 -157.909510 -168.981684 -180.474115 -192.417004 -204.839171 -217.767652 -231.227188 -245.239583 -259.822925 -274.990626 -290.750280 -307.102301 -324.038312 -341.539276 -359.573322 -378.093264 -397.033776 -416.308216 -435.805095 -455.384182 -474.872280 -494.058703 -512.690571 -530.468100 -547.040331 -562.000416 -574.916211 -584.696201 -588.246942 1309.772808 1303.014748 1286.476713 1262.212977 1236.218143 1209.175925 1181.218054 1152.388378 1122.733223 1092.308239 1061.178446 1029.417327 997.105747 964.330782 931.184455 897.762410 864.162552 830.483697 796.824258 763.281015 729.947983 696.915410 664.268902 632.088698 600.449080 569.417924 539.056375 509.418647 480.551922 452.496352 425.285136 398.944676 373.494782 348.948940 325.314607 302.593545 280.782174 259.871946 239.849724 220.698172 202.396138 184.919039 168.239237 152.326399 137.147851 122.668909 108.853198 95.662951 83.059278 71.002431 59.452029 48.367273 37.707129 27.430500 17.496364 7.863896 -1.507430 -10.657761 -19.626804 -28.453784 -37.177413 -45.835878 -54.466845 -63.107461 -71.794380 -80.563782 -89.451406 -98.492565 -107.722181 -117.174785 -126.884527 -136.885146 -147.209932 -157.891641 -168.962378 -180.453419 -192.394978 -204.815895 -217.743228 -231.201747 -245.213294 -259.795997 -274.963321 -290.722923 -307.075290 -324.012130 -341.514505 -359.550659 -378.073535 -397.017950 -416.297425 -435.800641 -455.387548 -474.885107 -494.082716 -512.727344 -530.518424 -547.102482 -562.067297 -574.924134 -585.115002 -591.407567 -594.577778 1310.620324 1308.201558 1299.536441 1282.676505 1260.696207 1235.674782 1208.975734 1181.128435 1152.334751 1122.692568 1092.273734 1061.148252 1029.391101 997.083568 964.312816 931.170853 897.753275 864.157930 830.483574 796.828565 763.289629 729.960738 696.932097 664.289281 632.112499 600.476014 569.447685 539.088649 509.453114 480.588262 452.534248 425.324277 398.984761 373.535521 348.990057 325.355841 302.634650 280.822922 259.912125 239.889140 220.736650 202.433519 184.955182 168.274016 152.359706 137.179592 122.699006 108.881585 95.689576 83.084100 71.025421 59.473165 48.386544 37.724531 27.446036 17.510041 7.875728 -1.497426 -10.649566 -19.620397 -28.449142 -37.174512 -45.834695 -54.467357 -63.109646 -71.798217 -80.569252 -89.458489 -98.501245 -107.732440 -117.186607 -126.897893 -136.900038 -147.226327 -157.909510 -168.981684 -180.474115 -192.417004 -204.839171 -217.767652 -231.227188 -245.239583 -259.822925 -274.990626 -290.750280 -307.102301 -324.038312 -341.539276 -359.573322 -378.093263 -397.033771 -416.308202 -435.805053 -455.384059 -474.871921 -494.057674 -512.687674 -530.460148 -547.019196 -561.948546 -574.771088 -584.983255 -592.330632 -596.485443 -598.021351 -588.246942 -578.570940 -556.140116 -527.761751 -492.286149 -447.949775 -393.181533 -326.390949 -245.935205 -150.110308 -37.149416 94.777371 247.562380 423.156349 623.554081 850.756117 1106.683680 1393.014760 1710.904485 2060.560205 2440.665465 2847.674083 3274.910246 3719.039460 4172.555011 4565.183350 5179.816650 5804.046563 6500.154188 7801.378317 8802.736759 9548.045659 10938.119333 12215.600820 13698.810934 17026.308742 17935.522953 17455.176104 17856.060653 18577.281265 19717.217082 21112.924418 22392.571661 23539.664647 24501.395168 25378.398040 26219.226564 26473.524529 27290.765960 27964.774989 28350.740097 -594.577778 -589.181078 -576.616426 -555.544174 -527.889999 -492.631880 -448.406839 -393.721576 -327.007764 -246.628656 -150.881870 -38.000902 93.844195 246.546048 422.056171 622.371260 849.496060 1105.360406 1391.659026 1709.579551 2059.396990 2439.954803 2848.131866 3278.505403 3723.428965 4184.612946 4676.132134 5260.888148 5933.137097 6755.647854 7783.417134 8771.587641 9741.006381 10973.418509 12414.458014 13927.967392 15501.871580 16884.046930 17848.660875 18247.962879 18847.757593 19853.734615 21054.776520 22251.280143 23291.263996 24162.292801 24969.199263 25807.813133 26650.417207 27538.507875 28073.898953 28043.561126 27690.631053 -598.021351 -595.772077 -588.751582 -574.983441 -554.699541 -527.357154 -492.166989 -447.915038 -393.171420 -326.388015 -245.934356 -150.110063 -37.149342 94.777405 247.562440 423.156551 623.554793 850.758564 1106.691878 1393.041657 1710.991209 2060.835719 2441.529876 2850.356266 3283.193096 3736.594012 4215.067162 4740.373569 5340.989888 6041.914396 6880.654644 7836.790304 8832.842295 9895.518523 11102.952321 12462.309149 13902.443211 15370.193692 16759.004345 17736.525916 18394.746246 19118.055121 20026.984780 21059.177097 22126.351338 23133.099076 24058.380802 24954.089546 25831.343001 26625.609038 27177.771234 27473.531026 27514.263100 27491.641227 27498.368072 9120.170272 9405.772013 9879.590672 10260.105479 13966.805369 16202.241083 17412.584232 19403.948796 17190.789094 10904.161993 21340.900417 22008.349581 23413.510498 25098.276966 25235.708196 23939.064972 25997.217592 26075.334617 26409.898335 27566.735130 10560.528065 15603.387121 9933.325949 17933.601780 12945.624975 14125.932830 13914.657310 17596.419683 19651.506245 19470.640479 20493.111688 24666.174984 25864.288958 26209.585622 25948.476842 23073.406950 26393.190085 26139.587218 27240.929599 27113.409201 15685.491766 16896.612362 11174.653339 20755.670881 13954.895639 17871.100167 19230.681479 26461.484610 21303.775662 22546.964925 23863.109835 24171.359182 22824.850006 25632.967889 26228.536320 26804.690151 26409.152386 26194.207233 27404.255956 25988.588651 19918.252946 22255.122872 17155.280430 18092.755523 17704.780981 24979.572155 16743.445376 22577.236147 22930.012261 25849.035750 25802.415701 27617.300015 26147.708347 26446.771747 24543.348917 25976.427848 28116.367551 26720.927282 28344.849864 28199.802629 21385.208507 24721.641462 12283.606524 17153.451699 23858.363245 20669.666130 16550.046621 23397.051934 21691.328067 15353.913115 26293.274880 23218.957241 24477.446951 26237.553511 25796.744697 26176.191054 25773.845380 26409.125062 26406.558581 28392.519136 10874.332163 19192.259054 14183.977652 14315.538335 15718.456195 17138.937574 20296.501485 25581.266751 19190.196763 21095.505055 23556.469746 24708.696376 18612.800196 19893.500689 25471.813287 25595.679224 25295.739096 24900.687539 25262.858136 27700.515289 21108.180062 17079.091253 19096.359680 18582.259269 13256.166166 24598.932023 25726.670810 23966.809400 22541.134294 17881.388714 24083.026097 23947.490833 26457.449367 25660.124320 24257.723442 23841.327387 25164.831953 25525.726809 26929.884995 27034.488551 20044.621939 14795.566593 17407.532330 19490.382946 18703.892499 16502.976317 15261.739935 20931.154334 22514.292544 18651.179937 25203.443252 21571.694142 25492.044772 25187.048029 25106.968747 26035.251165 25266.660362 24220.714036 27258.505729 27285.437293 13951.863824 13375.853814 16426.285003 11323.403579 18287.525008 15311.608265 19630.576947 15639.960008 15849.346407 18251.930779 16796.418179 20113.541557 21934.899835 24034.330580 23758.867005 21155.433252 25116.423748 21443.431828 27453.208363 27660.147411 13146.012365 16899.937748 21682.273638 14706.564930 16702.595773 20633.525324 14749.006325 16036.950526 16650.011929 24078.173119 21285.859144 20217.570317 22604.816119 22342.972851 21085.250239 23134.059225 27248.531055 25282.682674 22613.475542 27424.817767 19005.045048 21746.714157 14208.426825 16976.469954 21220.361008 22591.909411 18443.384325 17791.765316 19632.174060 20938.837943 18326.628648 25055.979194 21301.204289 27091.298361 23616.580105 26103.790133 22742.592586 26552.193646 27726.885930 26822.516117 10203.375349 11069.470273 13898.848964 18588.220128 15254.379625 17396.613970 15859.297821 12747.208480 17667.876672 25356.889016 21522.348049 19281.263140 22811.874524 20137.234838 19809.926794 26915.403961 25345.596788 22509.167893 26224.585249 27049.499872 12838.795581 12167.417280 13522.828846 15972.530936 16250.294543 13101.960954 16471.799374 20056.219729 16829.968870 17808.007083 15210.648403 22800.206416 18349.189156 22940.833590 23038.314958 22438.107661 26136.197360 25875.230865 27270.801958 27348.568407 8934.194627 10742.270857 16828.317953 11740.857367 14927.124756 18285.502454 15920.057051 18229.838228 14638.990095 21094.918268 19874.097692 21604.904956 26754.001439 22509.852549 24161.105605 23715.842738 26709.505184 26531.693474 26923.827877 26819.870801 9358.366580 9191.378805 11708.945165 12936.316652 14557.849853 20180.985800 14086.812511 20106.509534 20004.476099 15862.712018 23232.934710 18768.348623 24375.935637 24677.726832 25102.863165 19175.269076 20904.046667 28106.539916 26121.944296 27281.631758 9582.851891 9234.011136 9103.563304 10139.436633 15920.190360 20810.811594 14899.637981 11656.027311 19532.334535 13712.513022 18687.278335 16913.285309 24586.142102 24034.824161 26149.709845 25157.761366 21894.386071 27335.885791 24272.699179 27698.326498 11603.705340 11138.747934 8806.445498 10597.859458 14454.370050 12408.556712 14811.001018 18512.047251 19542.967925 15715.109015 14651.850001 23808.924844 22735.562124 25066.500771 20361.011504 25201.306447 21206.917086 25205.355000 28233.795097 28540.238157 9073.103102 8768.631012 8619.538053 9231.917908 10140.586721 11624.263003 13915.291549 12734.126893 15081.933547 15217.910762 23615.512236 17923.536174 17918.481859 17253.052634 23923.255141 22158.099703 23540.132689 27113.323312 26714.912295 27918.463498 7673.413268 9678.736862 9091.508169 11045.303296 9795.724328 9982.110306 12863.677696 12469.320993 21226.517859 22638.179526 21209.894391 21553.292442 25022.940828 22891.415468 25349.214277 25562.659896 25806.405091 26299.271839 24014.608610 25450.991111 8757.490944 9083.695381 8907.459759 10398.541831 11506.127899 11173.869174 10239.998322 17813.425637 15186.867051 16216.362721 21480.128439 19251.689270 25723.262220 25225.472708 25197.890898 26309.303863 25161.631253 27190.763800 27546.255371 26812.860332 6296.468074 8864.415761 9824.704607 9095.135002 10453.351454 12600.639209 12859.832866 15470.824879 15661.034439 19183.878730 19533.065307 18915.330093 19870.607693 25411.166923 19264.484564 21641.224994 25029.685790 26048.975125 25433.911896 26984.921584 7909.806279 8536.274906 9088.082139 9620.168039 12887.257487 11225.175057 13723.065788 15623.328615 14260.052460 14109.047530 22248.393804 24045.087155 23281.406551 24166.144401 25030.388983 20359.815607 24164.097589 22202.262481 26617.750819 26603.364497 11358.519376 9433.374344 12281.088123 9810.800323 12017.525581 10426.988341 14323.262393 13756.410477 17074.927846 18389.361016 17701.102909 24731.056696 20938.316813 25932.202424 18200.057825 25975.056964 27451.569343 28003.232286 25513.925772 26061.974431 8038.653876 9304.760491 9861.573327 9559.551436 11579.063279 10036.431600 17341.362845 13830.422450 11631.998233 19544.246743 23010.210419 22622.006322 23261.889186 24421.325000 25356.829215 25418.214000 25757.724326 28045.513064 26206.256349 25319.552036 11036.031238 12943.419370 9258.566944 9685.844439 15822.782653 10811.264394 11512.441937 16379.581016 12633.691644 15249.137650 16215.444687 21706.799688 16923.058599 16826.959826 26415.737739 23715.398184 25022.254918 25634.110191 26070.888679 25526.722203 11730.129709 9632.045459 10883.298330 9254.178373 12869.861994 10573.623015 10847.098791 12708.217474 13759.424896 17403.319746 15162.223279 18086.127852 21323.226907 22630.871278 16874.945189 23347.293870 25899.836678 24692.043957 25178.352336 25195.713595 6398.283420 9508.131568 10418.743280 10143.203264 13957.690933 13320.930549 10857.171712 12690.168560 14604.496224 19931.021497 15548.636237 18208.290551 16421.196884 22670.074880 23324.965438 23687.199945 24880.997137 26084.189436 25739.200485 9539.737467 9039.572133 9835.509262 9209.583853 11569.102432 12812.134208 10541.448580 13822.749245 20464.882759 15402.838961 18645.815569 20789.770670 24329.556731 17049.276508 23014.463453 24889.676012 25887.855122 23813.106261 25926.619126 8413.843063 9346.083070 11970.202156 9262.189648 13802.909457 13647.832289 10163.311417 13143.383089 14924.980153 17017.490993 20617.156365 14310.477980 21800.636753 15868.833221 24780.514293 24949.511800 24910.552024 24775.721272 25053.800149 7304.188145 9602.464758 9886.480030 9522.794803 11427.696495 12313.208614 13733.638051 15123.546392 15818.726468 18180.589637 15943.681263 18802.755831 20409.652202 20432.458399 21696.104994 22189.524869 22102.761288 24107.715834 24371.908908 8880.375738 9092.717144 10679.404085 10715.139097 9574.740591 9754.307239 13313.113479 14550.194182 11586.874187 13702.342906 18921.162526 14199.233526 18126.124678 18836.557036 17665.916191 24886.053791 23786.844167 23598.175834 7766.245549 8872.621924 9528.991538 9614.596532 10958.207362 10953.360464 12069.619422 12061.451501 16201.346381 17465.410236 15157.731889 21231.314473 20098.258179 22508.165344 23474.351595 22014.135030 22937.549740 23394.223347 8113.634763 9057.751731 9806.154175 11588.146951 10382.004664 12238.292431 10765.372753 14566.629762 14653.079318 14005.544192 16379.209177 20421.589901 19364.261660 23066.194828 20011.208543 22696.156043 24964.957703 7860.233888 9565.411299 9678.187549 10066.044927 11174.339199 11323.111283 18408.042019 10558.682677 10579.645347 16840.784154 16526.526661 21205.566611 25356.599557 21506.191709 21797.294386 23467.181893 22836.501859 10020.137134 9674.435222 9538.521301 9081.704998 16537.593209 20197.245222 14194.147174 13559.905680 12275.241673 21603.352100 15331.715102 20822.150279 22577.827156 23185.066506 18968.843410 21573.616736 21563.110204 21564.185065 7990.105872 10192.810513 17407.254586 10390.713891 10027.249055 9940.201896 13285.309350 15255.489392 18484.591739 21068.924705 22327.261314 21974.884842 21397.972789 22213.492244 22637.972417 21628.203968 10140.575677 8798.432050 11156.161484 11081.764347 10039.577954 14918.716155 14554.041765 17652.643521 14415.109053 11804.618844 20688.160401 20881.022334 22130.038322 21356.668494 16972.418260 21414.255414 8679.565580 8197.511073 9635.627932 10897.837872 19859.489162 15873.452712 15316.051195 16977.336895 13173.485391 11953.152572 19444.354036 20941.816144 22444.766135 23382.247975 22874.063502 21434.417836 7596.878565 8968.434668 9119.714358 11831.138639 10181.355699 10619.552778 17014.334921 10038.386833 12449.877575 17958.958166 17853.781183 20620.596005 21483.444045 20467.281825 21002.482720 7763.424707 8776.516614 11071.063908 9565.903169 11441.521423 10155.554139 11231.430828 11620.564642 19158.682131 19587.835393 19234.455603 20581.374839 20493.371888 16036.756608 20664.784175 7551.160854 7877.168286 8703.486673 8948.254737 11190.909870 11644.012531 9383.702503 14376.819693 17548.969996 12220.227878 21576.032940 11928.984615 22860.844331 17787.492756 19814.420679 7928.443481 8641.976032 8489.988623 9075.212025 11910.798487 10717.311827 10534.566712 13846.185684 12868.716955 11382.244037 20107.468053 22978.035069 21904.176363 19149.913938 8057.683827 8355.423261 10357.656255 13732.112690 15098.373589 10886.640561 10465.145724 12535.872469 14094.602799 19748.930153 17827.156670 16630.856214 20793.802032 18763.891149 7577.154056 8303.628406 10703.125423 10194.500901 13076.384801 9304.499602 17047.237141 15184.408297 10228.104778 11056.394437 18759.986505 21926.770484 16343.537744 18243.661013 5951.721270 12813.828378 9516.396007 12586.408956 15741.969047 13722.595558 19885.331504 15045.320842 19294.453977 16388.288174 18365.775389 17756.238002 17151.334683 11204.590775 8217.254135 9034.590346 13153.438110 8147.279407 15562.923271 10147.711646 15849.343985 17248.256719 17627.444832 18612.917472 19720.627112 16720.033881 8093.694370 9349.329105 17041.210452 12766.161125 13598.006994 12568.134170 14841.033277 9414.370658 18001.188565 15069.197210 15610.228258 15869.827315 16309.395306 8986.443841 8557.091451 8483.919589 11534.226853 7133.665886 13224.973749 11232.695910 15891.912672 17750.422307 14997.079800 14511.738631 15424.034333 8247.592678 6849.466859 8406.059382 8008.841824 8480.923755 9484.283692 11962.045156 17383.128549 15758.804588 19743.387263 17290.926507 15044.489405 8074.153902 7830.613406 8709.058769 14252.960668 8412.189849 12952.065904 14911.747404 11885.400692 18412.891687 18490.358947 15501.628882 15039.798088 15043.704049 8971.920938 9811.868507 13418.105375 12583.171624 10961.063098 10703.346138 10406.465189 19582.930105 14765.471379 13152.384420 17494.494211 10239.225737 6804.205531 7762.304428 12117.597303 16345.575132 12653.374824 11309.368093 8123.798339 20338.144315 10563.937713 14114.874768 8997.840152 10082.666162 8584.043482 9420.785350 7765.457578 15019.454339 14558.909029 16592.885629 13775.173919 16126.598179 13912.560259 8081.807341 11594.344323 7172.423208 9782.803845 11416.947849 9914.886263 10901.983212 13762.858928 12227.611129 13584.262572 8722.514830 9456.682688 6271.101822 13281.587052 12065.544068 11842.371891 13900.309513 17634.533848 20555.438994 13247.910004 1581.200849 8021.721397 8309.316867 9628.298662 11357.540171 12236.047620 12606.909950 18035.374175 18741.000043 13152.017832 8367.029907 8317.478832 11755.258119 8360.817936 13323.551746 10081.646125 12968.847736 14474.803473 12037.221145 8839.832777 6636.387647 9195.762025 9069.584981 8580.788946 15360.893485 11487.788648 9450.676688 12300.785621 8673.753059 7855.038015 11352.510298 12581.080017 13968.363447 11319.232322 15235.598377 14877.167539 11926.936262 8432.312434 8129.234222 7670.359787 9171.379408 9396.342081 9895.293418 13515.065669 18877.481723 6080.751758 7618.909664 8197.817158 8232.983954 13011.198391 11800.336401 9502.165066 10026.677287 5761.436554 9105.017750 8924.046214 8868.157008 8481.202888 8524.297478 14319.242704 11158.188937 8357.338363 7435.594921 7821.307497 10260.744955 11982.572350 13587.340673 9006.104721 6797.666254 9570.392569 7464.183451 7885.595592 11655.053204 9516.479868 10223.513493 7503.062436 8130.664792 11245.956235 9593.375001 11559.722555 10574.690911 10181.785441 10219.754439 7988.571587 7865.304192 13004.307475 8827.533811 9306.484562 13159.201279 1503.532086 8864.896118 8727.830816 11420.748479 9396.089785 13682.828694 7921.525703 9613.943678 6974.209426 10540.501908 7955.833963 9195.494015 1854.603393 8981.835212 9104.463398 11970.698740 8721.297455 7727.555373 9401.162391 11437.480251 8663.580902 12317.323459 8344.243374 7665.348712 8793.763037 9896.884767 9014.450535 6842.535648 8268.868400 8867.367254 9034.079860 7343.540284 7032.243382 7465.266753 8867.267423 1956.086796 8875.290481 7500.706821 8821.126108 7758.230056 8804.700578 8698.910098 8809.006181 8138.150807 7764.934498 8469.678009 8075.901686 8060.498052 8375.754195 8139.369485 10802.614432 8999.952073 8179.113823 8562.452915 7931.365305 9171.898749 7654.462464 7665.544146 9646.976756 11174.648325 10412.137904 10200.933377 8779.259274 9143.029398 10020.399152 11227.362700 9250.951431 11509.573199 4485.650370 11428.954509 5990.667473 6230.366495 12118.158548 9750.941955 13746.227256 9575.180598 10852.928016 12170.533201 10586.799348 13025.995686 12147.558407 10546.179667 16254.978384 13500.385419 10437.789879 11244.257987 11805.092221 11912.925882 11607.056762 10245.281862 10194.121567 12820.235699 16443.045880 11934.942161 18245.167786 18508.816389 12756.796596 11465.440171 10147.548692 9621.534926 12720.473846 12529.062826 10573.399266 9922.123871 9098.444807 9431.582115 10250.055200 11434.652437 15501.049428 9603.238820 9342.953181 17325.788506 17689.377937 15154.553337 10822.660997 10298.279355 14257.270663 15081.459198 9254.871631 10283.316051 12213.361490 9749.378825 10799.609224 12532.993167 13048.115589 16838.505691 14122.678749 11354.807060 12227.331248 9684.603282 16297.769765 12777.192365 22764.155758 10203.238036 10607.551630 8568.278538 11381.597102 8904.742817 9464.145032 13591.310453 11468.791051 14396.205372 12401.824846 13234.341212 11648.081139 16288.864409 15634.144674 11355.545074 9494.488995 8666.498760 10778.765207 9166.295604 9184.918406 9902.295351 9541.421666 14102.042800 11412.416453 14572.988003 13704.753675 13214.452928 13463.094689 14382.129010 17606.466046 10227.205460 9015.597718 9653.583255 13329.013688 11231.763228 11682.625064 12928.466997 12097.772140 15437.150671 12510.944120 10905.998241 10422.354268 12447.815724 12635.909761 19876.648451 8981.145664 9723.822087 8903.201584 10747.188270 10262.202941 11115.955212 14431.330073 10080.124187 11873.473356 16545.308169 12115.113194 13588.437632 12513.933520 12284.305353 14760.999181 8743.915764 10414.313148 9899.125497 9195.894417 11863.663998 13680.154207 12104.461900 11764.331008 9120.650878 10747.315918 13478.795353 16664.870549 14870.155379 19138.633024 16751.067313 10839.894131 8819.946092 10294.395884 9317.159973 10101.643812 10061.706340 9531.730866 11887.590116 14583.784034 14821.580937 12152.545431 11007.791846 12481.877469 11399.685440 17411.856283 10514.677493 8831.951791 10737.916065 10383.032360 9900.508233 13070.238822 10759.411778 15781.793192 9945.162873 9941.814304 10699.351331 13398.605794 12894.124892 10587.095108 13303.705036 9526.652082 10113.307044 8983.854505 10644.793255 10372.357976 9761.755259 10041.040817 12296.048055 9376.721860 9251.640849 10124.092685 11928.249187 9921.220178 9779.349783 11594.931177 9269.058199 9984.079715 9482.461948 9930.535316 8973.688975 10223.324317 9667.490184 9498.891678 8120.170823 4263.366245 8263.798869 9318.031402 8874.606377 9905.497738 10052.611194
</DataArray>
<DataArray type="Float64" Name="Velocity" NumberOfComponents="3" format="ascii">