<VTKFile type="PolyData">
<PolyData>
<Piece NumberOfPoints="2186" NumberOfVerts="2186" NumberOfLines="0" NumberOfStrips="0" NumberOfPolys="0">
<PointData>
<DataArray type="Float64" Name="Pressure" format="ascii">
 28237.335086 28663.777680 28466.549072 27974.629222 27549.471257 27497.658176 27810.993716 28002.994785 27964.749567 28012.150253 28526.919525 28303.493597 28239.620821 28578.289818 28942.309958 29107.896303 29205.026158 29519.833898 29328.760177 29236.416205 28956.735852 28606.978515 27944.679714 26997.447874 26370.587092 25982.045018 28129.225393 28284.847961 28658.520484 28958.956371 28802.356417 28464.039865 28395.571463 28624.424381 28760.176717 28770.210290 28625.037316 28448.286397 28469.856976 28760.815305 29131.135317 29285.349008 29404.618171 29553.269185 29534.503055 29417.978712 29791.506493 30199.894134 29733.213035 28689.196241 27768.097965 27114.817514 26400.675374 26066.131340 28025.262167 28058.751896 28133.511057 28252.050146 28394.691923 28406.160124 28299.260056 28205.471400 28131.586351 28119.910678 28252.471659 28495.206407 28693.632646 28837.840377 28925.569555 28969.756844 29000.222538 29075.442518 29216.547718 29192.076906 29080.360831 29092.609523 29026.388744 28625.246132 28046.716620 27569.947732 27009.229305 26351.453197 26093.103048 25982.045018 25787.924875 25485.653587 25417.687397 25116.786025 24578.595532 23947.541863 23631.307822 23580.477462 23485.328918 23390.421828 23135.216111 22512.333231 21731.291645 21106.695607 20897.885804 20992.892778 21119.203596 21134.473784 21013.837970 20437.543497 19243.433911 18185.975002 17683.918098 17761.368740 17646.799677 16790.647290 16411.671109 15948.360874 15610.533011 15308.695490 15064.769985 15036.165497 14728.718898 14122.352578 13487.459568 13272.498981 13087.992409 12437.085051 11654.570650 11184.013702 10960.325558 10820.696551 10564.444000 10191.195030 9936.198171 9389.302957 8538.161675 7950.737437 7956.016462 7953.608099 7355.550161 6349.301329 6065.204545 6375.352745 6750.461249 6674.146719 6322.965785 5402.786364 4404.269777 3856.839878 3541.279797 3012.219457 2725.059396 2590.082922 2798.464736 2544.235857 2490.612862 1605.161432 1286.558347 731.602297 796.912640 1175.806139 1545.438487 1878.322709 2198.209672 2439.430193 2379.273582 2301.798238 2122.454784 2049.281775 26066.131340 25946.275047 25727.762645 25357.023932 25076.327052 24901.068775 24592.365317 24207.513672 23843.708813 23553.995886 23301.889208 23063.870580 22638.706773 22086.270538 21788.251875 21601.193511 21309.603499 21120.881501 21095.774468 21060.964003 20706.195280 19844.138062 18703.836207 17931.001961 17799.679239 17570.639071 16955.988117 16569.922508 16357.415667 16142.048429 15737.739286 15309.601274 15001.599012 14597.283588 14025.542224 13565.140401 13366.687573 13092.091658 12478.647905 11779.091539 11304.949329 10982.503206 10692.459948 10325.035630 9768.100679 9282.688099 8858.147592 8299.176685 7974.067461 7884.905875 7662.530392 7168.256976 6641.910605 6470.502585 6631.511525 6627.575412 6181.976784 5570.538728 4941.001671 4455.390015 4085.890762 3634.721896 3239.134536 3009.256973 2884.275513 2828.802164 2671.178690 2257.285514 1689.558132 1134.613073 931.846828 1089.809035 1366.844722 1653.917370 1923.414995 2134.228649 2255.217173 2254.505147 2182.729434 2120.216317 2101.885525 26093.103048 26036.294692 26068.442265 26008.012649 25808.790010 25493.552023 25050.631358 24558.523348 24093.475761 23692.964202 23336.221916 23009.321468 22653.961189 22252.692179 21899.354971 21618.865849 21350.759819 21103.620706 20876.755104 20589.125688 20206.877760 19745.199078 19204.312085 18698.428838 18302.936041 17862.109103 17324.775312 16829.856433 16454.550313 16156.386306 15844.246616 15522.175539 15191.926161 14809.219629 14371.216414 13950.894931 13563.145301 13121.876654 12581.047722 12000.999097 11495.607448 11088.684550 10727.780268 10357.579262 9910.970336 9431.587231 8974.698455 8532.193232 8183.518060 7966.897736 7768.529782 7468.425953 7085.735463 6769.846598 6594.408096 6431.897294 6117.380551 5625.935230 5091.071089 4628.711180 4232.930364 3863.823159 3519.897371 3227.087698 2989.492948 2803.098782 2651.113701 2441.616017 2080.964741 1620.978653 1281.625754 1200.795636 1316.480671 1522.320009 1750.803067 1958.992523 2112.079534 2191.706000 2203.553119 2175.341853 2142.344510 2130.089533 2049.281775 1957.506089 1784.323916 1639.622290 1543.965183 1468.599696 1386.050372 1317.842015 1264.597991 1237.341435 1243.308636 1257.302635 1269.807381 1278.593448 1284.729207 1288.573147 1290.258250 1289.874323 1287.510983 1283.264994 1277.234938 1269.501125 1260.062701 1248.571208 1234.189032 1225.066053 2101.885525 2051.782358 1961.419103 1822.862673 1684.715791 1573.591284 1489.498312 1417.216636 1349.848155 1294.846871 1259.448377 1249.627634 1255.537878 1266.039579 1275.042222 1281.940425 1286.771206 1289.581894 1290.430480 1289.386745 1286.532410 1281.959211 1275.766104 1268.056866 1258.944099 1248.600054 1237.669778 1229.906719 1226.792519 2130.089533 2106.021194 2052.781108 1957.969840 1830.209622 1698.700702 1585.990299 1497.501978 1423.492654 1357.476962 1304.118151 1270.192427 1257.293043 1259.472980 1267.333588 1275.419324 1282.061047 1286.803485 1289.563985 1290.366109 1289.271380 1286.360911 1281.730156 1275.490402 1267.784039 1258.840041 1249.139984 1239.736170 1232.279597 1228.625732 1227.681758 1225.066053 1212.032399 1188.121689 1164.852021 1141.614345 1117.890697 1093.596422 1068.747334 1043.388978 1017.574897 991.360291 964.800201 937.949023 910.860379 883.587073 856.181030 828.693221 801.173556 773.670765 746.232259 718.903985 691.730277 664.753701 638.014909 611.552492 585.402841 559.600020 534.175640 509.158762 484.575796 460.450425 436.803544 413.653211 391.014621 368.900091 347.319066 326.278142 305.781103 285.828976 266.420096 247.550194 229.212491 211.397804 194.094665 177.289452 160.966523 145.108362 129.695736 114.707846 100.122503 85.916292 72.064757 58.542582 45.323787 32.381928 19.690306 7.222194 -5.048935 -17.149154 -29.103821 -40.937286 -52.672592 -64.331135 -75.932306 -87.493099 -99.027681 -110.546929 -122.057927 -133.563410 -145.061174 -156.543429 -167.996106 -179.398107 -190.720512 -201.925728 -212.966584 -223.785388 -234.312933 -244.467459 -254.153586 -263.261219 -271.664434 -279.220344 -285.767985 -291.127200 -295.097562 -297.457336 -297.962500 -296.345856 -292.316216 -285.557686 -275.728945 -262.462234 -245.360949 -223.992210 -197.862354 -166.334440 -128.355511 -81.291335 -20.280980 18.916009 1226.792519 1221.034134 1207.034901 1186.481969 1164.430385 1141.509393 1117.878541 1093.610415 1068.767489 1043.409234 1017.593430 991.376569 964.814086 937.960496 910.869460 883.593794 856.185430 828.695344 801.173455 773.668497 746.227889 718.897584 691.721923 664.743480 638.002913 611.538821 585.387599 559.583317 534.157593 509.139490 484.555422 460.429077 436.781351 413.630303 390.991130 368.876148 347.294801 326.253685 305.756580 285.804509 266.395806 247.526197 229.188896 211.374717 194.072186 177.267673 160.945531 145.088236 129.676548 114.689662 100.105378 85.900276 72.049890 58.528895 45.311302 32.370657 19.680252 7.213348 -5.056592 -17.155655 -29.109210 -40.941623 -52.675951 -64.333606 -75.933999 -87.494140 -99.028221 -110.547141 -122.058008 -133.563586 -145.061699 -156.544589 -167.998220 -179.401534 -190.725648 -201.933010 -212.976493 -223.798450 -234.329722 -244.488597 -254.179746 -263.293127 -271.702862 -279.266120 -285.821985 -291.190350 -295.170834 -297.541745 -298.059106 -296.455763 -292.440598 -285.697871 -275.886724 -262.640866 -245.568501 -224.252543 -198.251442 -167.103131 -130.350166 -87.796095 -41.013443 -6.622496 6.045592 1227.681758 1225.598357 1218.209301 1203.887646 1185.221684 1163.978644 1141.345006 1117.807935 1093.570977 1068.739512 1043.386574 1017.574158 991.360063 964.800131 937.949001 910.860373 883.587071 856.181030 828.693221 801.173556 773.670765 746.232259 718.903985 691.730277 664.753701 638.014909 611.552492 585.402841 559.600020 534.175640 509.158762 484.575796 460.450425 436.803544 413.653211 391.014621 368.900091 347.319066 326.278142 305.781103 285.828976 266.420096 247.550194 229.212491 211.397804 194.094665 177.289452 160.966523 145.108362 129.695736 114.707846 100.122503 85.916292 72.064757 58.542582 45.323787 32.381928 19.690306 7.222194 -5.048935 -17.149154 -29.103821 -40.937286 -52.672592 -64.331135 -75.932306 -87.493099 -99.027681 -110.546929 -122.057927 -133.563410 -145.061174 -156.543429 -167.996106 -179.398107 -190.720512 -201.925728 -212.966584 -223.785388 -234.312933 -244.467459 -254.153586 -263.261219 -271.664434 -279.220344 -285.767985 -291.127201 -295.097565 -297.457343 -297.962524 -296.345933 -292.316469 -285.558510 -275.731639 -262.471042 -245.389741 -224.086340 -198.170094 -167.340968 -131.640416 -92.175313 -52.804967 -20.418160 -4.558743 -1.032140 18.916009 84.468259 208.870222 335.536953 467.899812 609.421675 761.391320 924.563572 1099.489116 1286.603889 1486.240695 1698.618044 1923.827049 2161.830978 2412.493853 2675.656635 2951.275632 3239.619136 3541.473988 3858.231730 4191.593335 4542.434747 4907.989291 5285.552849 5655.054318 5993.547791 6605.312415 7132.184513 7701.187563 8947.691018 9958.378977 10602.713650 11658.019380 12760.946417 13849.010963 20170.213872 21834.365796 20901.823616 21625.954065 21521.103783 21937.326853 22493.852974 23017.688650 23696.628291 24793.640137 25763.808980 26208.463271 26395.513361 26821.698987 27624.460549 28237.335086 6.045592 36.116887 108.246396 216.649401 337.323975 468.114416 609.150316 760.958871 924.069572 1098.966573 1286.066261 1485.696158 1698.073644 1923.289399 2161.305334 2411.982018 2675.153968 2950.767974 3239.081817 3540.878227 3857.572419 4190.982143 4542.409712 4910.628657 5289.572097 5681.283502 6100.526793 6624.634565 7205.182467 7913.226901 8899.842853 9857.578566 10791.567409 12025.830689 13572.448552 14990.783593 17273.316943 19756.570640 21884.953959 22301.205936 21979.301112 22147.360869 22578.383716 23057.578760 23672.383451 24626.737447 25653.124237 26199.711117 26306.092585 26641.140143 27433.547783 28067.596732 28129.225393 -1.032140 10.263257 48.805579 123.483650 222.929370 339.756763 469.199817 609.820674 761.513876 924.601220 1099.500684 1286.607443 1486.241784 1698.618368 1923.827113 2161.830886 2412.493494 2675.655620 2951.273119 3239.614189 3541.470209 3858.264364 4191.857577 4543.831683 4914.334177 5302.126944 5712.253628 6166.654759 6685.491508 7283.187526 8013.103763 8880.352365 9818.979235 10875.111444 12132.168989 13582.970227 15117.704383 16911.977147 19475.794083 21487.451389 22061.557914 22109.509350 22283.078860 22650.157605 23130.922492 23741.487940 24528.011467 25382.745897 26137.398135 26728.039242 27288.313168 27799.326504 28037.577305 28035.480088 28025.262167 10070.519179 10280.201147 10847.407139 10607.028839 12619.290578 18078.595836 19265.801171 21673.487274 19396.716012 11009.829785 22414.421515 22747.135620 23414.611233 25192.959785 25366.579746 24222.202263 26055.059442 26256.167400 26367.244235 27865.966535 11094.416455 16206.006058 9787.101596 20370.476488 10914.568010 14112.890284 14316.380298 19038.820200 20834.644422 20070.767779 20868.083886 24443.037434 25290.194761 25268.883283 25410.689746 23277.680332 26226.475939 25345.159283 27019.978393 27794.394150 15867.307040 18887.627731 11649.707079 21401.104947 15084.167099 19813.689226 19457.638214 25542.941192 22174.859761 22918.263230 23743.998727 23908.783050 22880.324818 25589.788194 25373.966968 24905.128643 25139.802030 25773.455038 27535.689262 25953.607207 19985.456671 22149.020481 17485.554528 18248.021890 18713.379586 24700.431254 17303.482867 22925.758295 22584.531619 25295.829208 25559.765240 26844.660140 25449.787364 25547.678744 24221.255782 25963.688369 25937.209120 25154.129009 26579.512424 26323.365489 21792.487109 24568.871476 11002.383528 17612.417542 23642.142150 21935.922600 16051.735120 22826.783643 21460.564688 14798.663886 25445.812484 22594.087862 24334.728779 25402.868546 25645.564260 25753.094833 25562.720992 25052.307467 25048.768056 26506.406626 11524.496585 20161.408923 14254.846915 13945.915655 16075.828046 17435.037876 21452.093063 25147.598782 20882.920986 21725.044067 23185.971624 25262.747825 19532.524307 20185.474220 24681.971127 25354.400320 24554.546016 24801.235668 24915.241174 26825.427090 21443.190830 16665.615735 20410.856813 19957.577123 13527.948410 24307.434729 25418.494934 24105.987978 22586.523193 17313.987198 23619.217868 23435.175959 25805.353529 25307.712299 23815.647304 23342.403108 25388.680505 26721.243651 26870.635261 26715.424078 18558.698339 15221.396525 16550.771242 18626.972046 18459.902052 15727.158837 16782.211619 21224.663361 22758.809311 18861.564569 24450.584898 21146.396006 25066.270199 24302.910809 24572.254470 26033.761936 24894.405665 25672.302132 26604.167040 27221.801368 14124.403849 12837.755866 16284.011879 11307.854725 18353.801182 14894.412925 19619.790067 16488.737396 15880.758840 17725.395760 16587.740543 20423.815301 21660.906953 23928.575011 23587.965361 20974.572599 24693.928232 21144.404519 27696.398300 28273.951759 12570.601003 17077.697305 22053.374262 13822.443830 16188.885840 19907.644810 14391.569276 14644.475585 16987.049144 23594.216275 21372.943657 19629.995669 22445.685601 22560.489655 21480.267855 22367.175271 26661.342988 26770.137713 22436.844385 27929.064635 18920.842315 19673.008452 13547.546618 17073.062846 20813.142840 22674.029675 17592.189532 17921.796346 20149.589465 19857.531951 18041.081067 26088.218136 21239.250509 27655.262101 22866.273794 25774.982344 22417.772145 25497.677100 27909.092620 27180.139442 10780.555614 11367.105240 13645.963296 17701.133569 13903.005361 16649.948829 14848.723115 11726.051527 16220.202297 26160.845258 21096.213062 16892.696695 21974.152014 20053.998588 19356.796075 26134.108307 25273.964430 22430.079536 25877.807183 27357.283886 14179.692871 12430.107256 14105.195387 15886.507555 15105.460518 13195.417035 14810.072105 19460.191443 15968.592905 16365.101471 14181.994114 22773.517431 17412.433534 22579.306638 23091.268363 21366.207499 26263.579439 26446.557447 27855.566680 27542.133066 11017.873774 11610.179606 16405.829144 12216.064170 14668.019454 17814.694590 15929.682931 17341.848022 13971.754857 19941.329250 18933.039396 20083.418164 26652.194014 22504.609066 22545.017323 24126.227980 27919.358252 26283.311694 25912.896629 28119.163697 14885.195744 10945.788815 11974.577534 12723.240282 14466.174315 19783.861831 13739.973805 20868.235125 20746.845062 16578.497788 22350.876619 18579.910899 23330.435791 26239.952102 25795.773965 18453.866205 21173.405477 28328.285946 26246.511711 28366.360769 10260.702248 10806.162710 11027.043819 11185.542297 16901.471032 21380.789208 14439.689702 12638.441827 19561.725067 13766.243965 18232.585075 15935.095277 25796.229802 24121.390248 26442.808283 25158.944347 21023.724305 27476.872380 24044.018375 28570.414448 15473.224495 12126.067352 10992.620208 11288.035015 14338.804133 12865.205461 14998.926098 18123.337266 20520.023490 14524.769017 14960.625751 23946.239161 22059.794411 26205.792148 20643.788820 25590.623911 20483.494220 24235.245282 27967.797575 28814.793245 12125.247942 11818.713674 11554.298193 11412.984361 11587.668382 12031.659439 14780.692107 12599.986369 15700.038536 14331.992982 23445.236798 17387.800286 17538.833740 16234.801950 24841.204724 21466.453710 23618.948405 26878.738735 26806.208674 27878.521976 10300.246127 11524.690479 10915.561409 12562.650973 10888.416055 11813.263678 13288.863117 13800.789956 21042.742171 23237.350284 21949.185001 21983.746241 25823.950726 21152.866656 25236.998152 26010.950646 26266.155630 26073.263291 24466.735235 26699.815830 11057.137161 11875.859126 11302.094630 11150.910856 12251.189711 11741.820433 11821.505460 18752.900678 15000.220520 15782.876430 21071.344774 18163.734675 25608.349925 25129.617405 25791.552564 25610.457752 25982.084864 27564.415310 27893.322582 26257.850917 11351.725206 11629.378136 10622.164163 11077.439613 11349.449486 12868.740321 13428.400814 15546.188651 16805.881555 19590.498212 19134.470998 18714.525808 19876.655480 25221.966660 19274.974441 21749.032271 24922.537358 26242.275210 25080.024564 27216.598954 2471.897623 12530.883836 10946.757144 11778.578537 15440.710884 12699.918658 14734.590326 16689.409171 13964.382978 13807.899416 24013.959729 25528.519753 23842.199611 24435.663610 24739.862502 19887.266550 25186.545327 22607.614550 26959.666863 26987.453719 15093.175750 11159.029799 14633.491064 11480.699077 13743.895898 11828.660886 15375.622558 13849.927316 18549.074362 18446.453169 17198.040101 24256.325533 20313.403014 25566.925918 17426.883249 25764.597169 27254.843726 26639.869435 25383.616950 26622.827422 12184.525318 10919.468776 11270.264105 11497.490214 12637.562236 11510.208689 17316.080686 15548.645517 13099.288607 19139.488409 22928.169062 22558.416349 23016.385828 24748.108437 25818.634990 25511.596447 25220.555360 27334.056888 26147.782408 26050.162895 15682.324512 14230.502707 11540.642046 11880.870466 15933.833651 12121.789433 13099.899164 16924.234709 13454.037320 15266.273766 16117.654621 21646.398661 17076.166492 17720.559810 26001.125879 25470.629816 25738.033425 25953.367004 26662.295003 25617.227699 12716.763054 11437.386985 12498.097476 11335.094343 12978.327972 12751.486193 12379.756416 14384.406975 14861.595363 17127.549414 16461.959954 18450.613573 22736.339840 22991.337322 17147.658283 23546.605936 25942.846614 25540.052566 25732.823517 26034.304737 10856.602408 11530.290106 14559.670276 12304.914925 15232.524446 15447.530366 12096.660476 13493.639073 14239.152038 18830.347179 16711.664963 19356.783054 17410.278822 22880.641640 24645.310315 23843.257309 25239.645284 26641.808231 25674.700371 11565.197220 11485.878945 12006.473903 11414.832706 12849.620336 13445.799030 12212.935619 14563.626240 20295.495025 16110.352674 18199.579635 20177.044355 24805.988532 18402.542239 25073.945934 25858.520694 25769.000507 24106.213867 25640.401772 11943.216005 11541.122903 13143.263564 11211.723151 14351.600367 15320.831140 11683.879953 14695.040319 15683.167433 18951.744572 21293.360461 17309.086454 23288.700929 16332.418958 24997.662913 25533.051066 24867.641258 25221.956707 25188.297755 12139.659214 11799.331101 12499.298713 11531.621394 12813.339436 12889.562072 16283.025007 18579.062236 17626.003280 17993.960880 17395.093818 17969.575796 20291.852760 20778.581996 21940.712926 22385.713790 23561.357164 24049.606273 24704.500155 11603.970269 11173.959522 13527.233456 13409.331877 11069.719755 11660.906472 14322.926200 16562.504053 12744.113307 13652.458571 18353.753485 15422.756216 20024.392342 19789.747738 18230.299760 25801.870202 25148.084604 23683.236761 11818.555850 11441.295653 12206.887819 11999.701945 14357.525976 14132.171853 14480.768533 13580.224986 18271.857409 18867.336096 16530.530980 21474.931196 19257.470582 23080.641601 24827.854252 23930.066984 23612.133220 23446.398945 11308.327401 11680.117749 11607.637136 14607.517898 12409.024590 16067.767017 12507.723954 15825.699475 16053.951000 18004.151375 19533.000122 21528.270919 19287.007726 24741.698608 19416.348359 23775.869488 25159.593654 11098.497526 11868.166213 12023.615649 12483.404741 13611.383097 14288.869397 20249.461178 13128.057917 13722.566152 18457.470674 16581.198006 22231.897723 25555.458210 22059.391481 21431.330972 24540.189539 23640.690413 11963.069186 11534.434026 12435.125877 11458.551405 19207.207865 22570.480815 15873.986673 15827.849991 15914.377130 23515.389576 16575.218723 23972.997133 22655.047037 23999.505496 20698.520807 21244.034878 23205.389443 23208.187040 8189.669024 12278.581825 20206.406417 12406.130260 12672.107860 12494.156401 13287.382998 17396.062071 21366.201327 19922.054207 23563.206774 21107.296739 23502.848631 21846.687826 23457.646233 21851.540081 12982.119221 11301.234320 13940.684138 13282.847485 12167.801846 18496.900209 14987.941329 20468.150049 19847.835398 14726.752818 22066.049311 22793.144990 23332.278287 20657.602103 17239.936127 21717.043771 12220.188658 11744.707653 12327.454208 14795.203086 22646.852146 19319.172056 18197.887202 18324.782957 17733.615996 15095.410100 19342.003703 23260.954851 23297.670195 24893.780204 23738.303389 20698.923949 12739.780955 11911.474410 11490.893925 16761.028730 13550.996945 12932.411226 18992.141351 12551.716550 13713.469771 20372.455134 19314.844922 23574.361159 22917.683745 22768.535921 20816.148898 11838.365987 11264.510784 12877.307962 12674.891394 15152.549433 12953.428962 15068.345042 16756.767792 22054.257910 23045.981312 20637.715197 23857.965175 21469.112770 18999.817321 20823.859006 11022.172065 12116.390189 10910.190161 11729.697067 15081.589535 15650.843786 11640.207359 17128.652901 22281.445381 15481.517064 24730.334564 16693.523295 23232.610607 20908.907492 20781.813048 11940.202173 13078.698531 11438.827891 11661.074610 14848.056409 13797.441150 14226.069281 16718.149172 16465.787676 14272.399630 21977.031856 23404.045235 22527.706076 20389.186885 10852.478144 11694.160160 12745.613376 17662.901418 18236.852784 13962.532305 12255.689768 17564.242002 19190.904768 21743.300882 20187.033914 17721.918329 20818.544422 19876.556679 11598.105975 10973.831835 13113.237642 13758.892277 17786.459124 13169.433716 20483.459106 17864.039675 13779.800296 15492.475781 20571.664423 21856.181771 18132.452852 19142.825692 11103.755778 16936.016732 11623.379733 16627.651297 19337.108872 18177.686758 21255.620821 15614.324718 21534.882935 19339.703771 21033.203246 18328.832550 17867.189406 15297.659994 13784.998712 13202.942602 17792.337348 11384.635712 19399.128586 12049.660591 20103.530002 20240.140845 21635.732899 21295.748300 20762.665564 17649.105290 9710.277660 13962.344938 20463.252838 15978.741087 17126.195693 17568.587220 17549.576647 13804.984583 20273.705318 19017.408475 19673.988355 17810.989544 17508.896512 14392.865452 12365.662571 13362.098777 15088.171860 11535.931785 17663.857856 13996.040400 17837.447491 20122.568151 16928.949539 15443.468017 17400.465444 9256.490051 8861.843963 13119.107612 11198.884770 11966.499441 14344.541653 16433.148758 20537.233245 16944.556634 20992.964509 20194.287123 16599.861124 12411.981913 12117.985616 12124.355474 18735.441650 10972.913296 17430.081353 18715.975575 16154.448985 19476.070741 19643.683995 18698.369719 16592.436728 16594.418229 2901.625698 14887.587453 14888.568585 16170.813191 15004.725711 13583.569209 15125.229419 22431.533011 17808.983561 16911.561863 20594.729673 14485.631548 11657.423326 9727.378609 12175.207629 20095.011566 17606.847640 15727.567133 11900.216969 23279.465127 11280.175216 15187.478737 2305.546006 12922.500909 12759.762554 13902.325795 11154.645551 16573.864979 16227.870691 20571.514638 14933.569274 19450.842284 15051.587608 9895.998684 15557.795445 11141.208334 14063.753991 15070.516388 12335.522602 14712.094642 17973.123342 15588.035313 14906.393854 14619.822797 14681.724204 11388.475260 17466.546268 14826.543645 15530.983385 18871.011792 20290.316354 22146.928170 18308.057969 1300.869700 8672.428473 10133.946973 13887.014603 11584.030963 17292.580209 12799.108806 20415.809245 19366.776835 14418.050538 1918.635165 12474.610978 13345.801715 13873.934245 17139.534717 14866.637214 17052.066255 17530.511248 13816.234813 6595.707387 10185.246655 14320.107998 13426.053033 14414.872591 17603.304577 15406.389402 14019.437828 14070.942237 6633.405872 11396.258210 13245.817440 15410.928648 17653.232708 15380.840739 19789.587476 18997.588214 13256.128945 8325.295966 12362.187670 11379.048100 12839.406023 14386.639772 13551.631052 14977.916893 21191.752251 8717.512018 12105.183879 9777.256242 13111.035082 17186.018674 13971.387972 10228.943367 14617.512930 2421.352211 13918.628474 12850.213764 13421.318677 14184.291712 13273.720198 18623.107039 11291.778837 6273.483102 10374.842409 12304.927439 14903.777359 15326.363868 17583.084742 14274.464113 11063.405750 10757.204707 9030.764385 12163.725234 16054.940693 13611.688161 10833.610563 12472.781068 10382.701160 14825.651567 5755.322990 15351.257582 15087.728033 10768.357739 10751.840434 9045.102219 11935.998834 16004.875592 8158.795422 9959.651650 15735.442884 1238.038507 9261.046449 14198.110256 15716.886622 13512.943493 17887.323107 6697.751282 14390.169107 11073.314411 11212.895410 12309.324686 9529.747165 1533.373065 12011.574516 11582.692432 14887.665084 8574.022939 5760.765195 14629.206219 14993.181362 11405.280833 15607.090875 2563.678906 10316.169068 8095.567953 3350.467876 8190.238784 11704.342601 7555.452120 8100.220731 14457.075725 12154.616278 1385.508528 9773.386408 11369.758040 1618.645271 7947.712183 9948.948872 6162.318394 11470.296731 10391.795999 11987.429643 6102.198625 12067.495529 2954.803293 6705.477255 3977.368571 11371.091765 6730.948732 4348.183976 15092.232726 2008.288572 5018.503042 10391.440697 4121.787564 13262.994790 2952.489214 2889.132761 8358.526202 10960.464153 10375.306004 10197.423349 10181.856636 10199.379387 10581.065416 10872.886308 10486.888345 10611.442332 5959.950120 11367.621450 7225.479127 7401.864617 12327.137894 10209.252183 12884.864613 10313.920239 10721.344307 11896.629196 10793.508912 12605.096339 13662.143944 11075.792210 18155.773038 13206.450091 10845.624576 11533.537036 11992.315268 11010.211156 10872.828384 9977.103190 10672.327134 13647.236137 17834.169900 12018.286946 18676.159201 20796.921063 10216.540310 10980.096339 11050.850186 10363.417754 11570.166740 12506.596930 11330.101629 10539.326069 10211.275685 10497.293614 10536.264061 11983.404793 16234.477342 10374.840432 10317.341300 18667.499916 19597.700116 15089.230686 10690.297871 9974.442343 12309.020511 15348.505710 10408.882649 10734.602125 11101.390270 10700.411042 11406.071188 12878.632892 13364.090876 17504.692245 14849.324629 11920.421389 11780.364424 10496.175171 17883.314083 13001.493655 22779.548331 10327.297966 10959.937038 10327.489784 11452.832328 10094.100639 10120.792305 14077.935064 11188.488157 14836.653144 12378.538622 12082.786153 11921.777283 15505.518250 15825.495729 11293.049415 10423.652195 10108.624337 10630.121487 10138.810392 10039.369866 10454.045734 10614.209927 14470.521187 12027.374757 13653.343974 13723.988560 13477.613285 13197.640779 15330.023759 17992.116193 9205.488455 10265.337971 10360.216150 12996.002972 11835.468403 11163.083064 12866.514215 11673.852580 15084.315852 12494.857583 10988.689070 11084.688447 12701.734821 12573.357980 19204.864271 10322.817456 10335.237740 10110.644971 11105.640859 10083.094215 11662.257986 13230.198864 10547.252513 12290.447664 16029.714415 11961.457636 12741.690546 12931.534507 13059.405754 13115.975975 9919.495283 10449.597206 11001.586078 10218.130502 11939.740143 13418.616963 11693.100542 12326.645017 10152.965999 11548.847380 13660.717923 15210.139853 15344.539060 18534.112342 16594.207849 10591.380434 10078.209994 10598.775457 10140.740884 10678.136919 10800.953381 10246.229613 12475.197036 15116.790858 15653.741239 12437.942776 11165.826009 12205.698610 11610.751058 17201.195411 10524.400599 10067.106081 11633.263793 10926.660439 10763.435884 13386.284999 11886.728781 15820.071748 10559.581997 10798.751172 11021.335749 14274.554224 13981.253005 11163.116022 13407.883876 10163.700012 10495.197649 10075.948908 10782.252191 10566.294119 10900.852138 10847.065679 12250.171186 11198.539645 11215.464963 10590.589006 13275.024037 10962.962422 10618.083563 11947.931249 9700.492091 10337.751834 10645.090181 10837.214857 11071.586838 11184.407617 13266.972659 11726.806112 12485.884367 2419.811146 11721.054272 11424.292338 11761.213548 13118.957526 11288.319024
</DataArray>
<DataArray type="Float64" Name="Velocity" NumberOfComponents="3" format="ascii">