<VTKFile type="PolyData">
<PolyData>
<Piece NumberOfPoints="2186" NumberOfVerts="2186" NumberOfLines="0" NumberOfStrips="0" NumberOfPolys="0">
<PointData>
<DataArray type="Float64" Name="Pressure" format="ascii">
 24761.803966 25147.812395 26007.273426 25894.397045 24791.204250 24751.735837 24371.718303 23964.223274 23973.541753 24172.730306 24293.398774 24302.311697 24183.434809 24968.078263 25792.434947 25874.891175 26220.416310 25710.713763 25257.449489 25318.651138 25414.546611 25265.011588 24662.207548 24362.501263 24452.341686 24483.175891 25336.607829 25148.296576 24990.985370 25178.288675 25798.680453 26099.553030 25793.791041 25128.304790 24731.591392 24435.169803 24366.404553 24544.332784 24848.083000 25054.507069 25212.797234 25663.120619 26076.706416 26409.732660 26474.347913 26246.589303 25919.197208 25497.955860 25116.141849 24945.646025 24868.667985 24801.633157 24755.295166 24774.141501 25369.706507 25423.355849 25522.826765 25606.527107 25603.803910 25661.898067 25755.321419 25591.687755 25390.015249 25353.548484 25385.677746 25446.750923 25560.297533 25692.982552 25878.354323 25949.785407 25908.664679 25896.708243 25816.105216 25744.808842 25770.006751 25760.850118 25683.060155 25612.782988 25586.183515 25509.803994 25253.914321 25007.212649 24943.158350 24483.175891 24324.072039 23955.139803 23456.964509 23087.140630 22932.078786 22996.317242 22824.404220 22381.986271 21949.275973 21728.192975 21737.482147 21498.332056 20818.953469 20261.415196 20123.660044 20148.362128 20155.710349 20072.851243 19711.486004 19130.373732 18862.906456 18438.705643 17844.191687 17571.744471 17497.182779 17444.473929 17261.135298 16736.684971 16316.090573 16134.933888 15905.225488 15798.234431 15732.383045 15735.591431 15715.405518 15405.409180 14847.899663 14628.335852 14571.855923 14456.426974 14085.472842 13712.926280 13552.737030 13428.669188 13145.046810 12670.861681 12321.982515 12249.790065 12332.895271 12262.754908 11944.449153 11464.327765 11255.910149 10985.659675 10632.448189 10537.921446 10431.099754 10222.332971 10094.822795 9924.083564 9704.882165 9505.605287 9234.641108 8745.923273 8441.731211 7974.329843 7704.632970 7768.856620 7859.127820 7915.809889 7743.811842 7183.620241 6195.679320 5106.995675 4217.546701 3625.934206 3274.574706 2872.309759 2431.489965 2198.302587 24774.141501 24597.986384 24195.911424 23833.106949 23458.649647 23227.633756 23243.642952 23254.131310 22868.527084 22251.015559 21866.684714 21805.167080 21617.321269 21215.952931 20697.526111 20290.762922 20242.204408 20393.280245 20275.054332 19925.268304 19503.796223 19032.754841 18500.032704 18055.499954 17798.829179 17623.772281 17467.255380 17277.131478 16885.230958 16511.429117 16259.380207 16050.437500 15898.157898 15810.244751 15716.246188 15534.872217 15299.733459 14950.025518 14642.499721 14483.611474 14322.112143 13986.032107 13638.768560 13448.752458 13243.705219 12964.991847 12602.311121 12337.503653 12266.333846 12295.077804 12175.616814 11838.007209 11434.807359 11171.749721 10916.775820 10645.841924 10471.232240 10392.219842 10226.394850 9914.500269 9601.332718 9391.973841 9132.847811 8801.025193 8525.787962 8197.157308 7808.928158 7503.440209 7405.595566 7391.024099 7306.594923 7021.904397 6405.684701 5548.524095 4708.897367 4041.869042 3549.751652 3136.478585 2745.530862 2396.244860 2254.625496 24943.158350 24850.258009 24546.357222 24212.980468 23866.192357 23519.870372 23229.891102 23008.563837 22750.913241 22376.349646 22042.033470 21805.588629 21584.950787 21359.391531 21082.447636 20743.898034 20481.217563 20318.884385 20111.509918 19823.770519 19541.209756 19227.267183 18840.871690 18429.823856 18059.655716 17773.375948 17534.668121 17296.449128 17017.803513 16742.959532 16492.471837 16254.232972 16023.351606 15824.389098 15638.017532 15436.496441 15232.589106 15019.301216 14758.500229 14485.910832 14224.324814 13939.299036 13649.858243 13427.604210 13258.107179 13067.665426 12831.125615 12594.106890 12413.991297 12288.470605 12144.596684 11905.900250 11580.615920 11269.417356 11016.505795 10786.762649 10578.421246 10404.551798 10224.066166 9989.414369 9716.467964 9450.513573 9198.550965 8936.147963 8652.973315 8336.417330 7986.424415 7646.613838 7373.240249 7172.446568 6984.270586 6721.707329 6302.354159 5716.180554 5051.637722 4417.557912 3871.653634 3411.251426 3010.213341 2654.848365 2380.786910 2289.823614 2198.302587 2017.520201 1747.110330 1549.039853 1424.044893 1327.054180 1228.901156 1154.081070 1098.699652 1065.479150 1053.406483 1049.304947 1048.518801 1046.566230 1043.965445 1040.819096 1037.094626 1032.747304 1027.745617 1022.073462 1015.724945 1008.689931 1000.910966 992.099935 981.684062 975.293112 2254.625496 2163.020313 2006.985228 1793.577697 1602.210237 1456.815702 1349.584212 1261.757632 1185.315158 1124.540927 1082.387894 1060.946804 1052.653832 1050.061570 1047.902019 1045.494636 1042.702356 1039.429889 1035.611159 1031.203024 1026.181311 1020.537302 1014.274694 1007.407349 999.961619 992.010442 983.956422 978.339983 976.054305 2289.823614 2240.972358 2148.788968 1993.018463 1799.722598 1617.215333 1469.249693 1357.029611 1267.461051 1191.738903 1131.391294 1089.618582 1065.959081 1055.465521 1050.950564 1048.107987 1045.505964 1042.646958 1039.339450 1035.491415 1031.053072 1025.999272 1020.323416 1014.037220 1007.180361 999.857462 992.349869 985.327266 979.857984 977.159921 976.434926 975.293112 967.109397 952.297219 938.109423 924.113016 909.967346 895.608253 881.035801 866.268464 851.328964 836.240086 821.023482 805.699413 790.286779 774.803254 759.265446 743.689076 728.089151 712.480141 696.876141 681.291036 665.738643 650.232855 634.787769 619.417798 604.137784 588.963088 573.909678 558.994203 544.234059 529.647450 515.253433 501.071966 487.123941 473.431218 460.016650 446.904104 434.118480 421.685726 409.632848 397.987923 386.780101 376.039616 365.797786 356.087019 346.940814 338.393762 330.481547 323.240945 316.709824 310.927148 305.932967 301.768427 298.475762 296.098299 294.680455 294.267742 294.906768 296.645243 299.531983 303.616920 308.951114 315.586763 323.577229 332.977051 343.841977 356.228996 370.196374 385.803697 403.111924 422.183445 443.082144 465.873475 490.624545 517.404203 546.283141 577.334006 610.631515 646.252588 684.276485 724.784954 767.862389 813.595998 862.075975 913.395684 967.651849 1024.944742 1085.378381 1149.060725 1216.103892 1286.624435 1360.743856 1438.589946 1520.300863 1606.038279 1696.030431 1790.715681 1891.211070 2001.391493 2127.618895 2202.457822 976.054305 972.523098 963.870315 951.239301 937.831086 924.038220 909.952460 895.610570 881.042541 866.275786 851.335748 836.246038 821.028561 805.703648 790.290217 774.805939 759.267417 743.690364 728.089782 712.480130 696.875498 681.289763 665.736736 650.230305 634.784559 619.413910 604.133193 588.957766 573.903594 558.987321 544.226343 529.638860 515.243927 501.061501 487.112473 473.418701 460.003036 446.889347 434.102531 421.668536 409.614369 397.968104 386.758893 376.016969 365.773651 356.061346 346.913553 338.364863 330.450960 323.208620 316.675713 310.891200 305.895135 301.728661 298.434013 296.054519 294.634595 294.219754 294.856605 296.592855 299.477323 303.559939 308.891762 315.524993 323.512990 332.910292 343.772648 356.157043 370.121742 385.726331 403.031766 422.100434 442.996216 465.784565 490.532583 517.309116 546.184851 577.232430 610.526567 646.144175 684.164509 724.669312 767.742970 813.472685 861.948644 913.264205 967.516083 1024.804541 1085.233583 1148.911141 1215.949254 1286.464229 1360.576786 1438.412160 1520.100157 1605.775094 1695.575134 1789.636580 1888.051671 1990.404816 2093.211510 2165.836589 2194.421653 976.434926 975.178508 970.653359 961.852796 950.437932 937.549265 923.940362 909.914312 895.591954 881.030792 866.266925 851.328491 836.239941 821.023437 805.699399 790.286775 774.803253 759.265446 743.689076 728.089151 712.480141 696.876141 681.291036 665.738643 650.232855 634.787769 619.417798 604.137784 588.963088 573.909678 558.994203 544.234059 529.647450 515.253433 501.071966 487.123941 473.431218 460.016650 446.904104 434.118480 421.685726 409.632848 397.987923 386.780101 376.039616 365.797786 356.087019 346.940814 338.393762 330.481547 323.240945 316.709824 310.927148 305.932967 301.768427 298.475762 296.098299 294.680455 294.267742 294.906768 296.645243 299.531983 303.616920 308.951114 315.586763 323.577229 332.977051 343.841977 356.228996 370.196374 385.803697 403.111924 422.183445 443.082144 465.873475 490.624545 517.404203 546.283141 577.334006 610.631515 646.252588 684.276485 724.784954 767.862389 813.595998 862.075974 913.395683 967.651845 1024.944729 1085.378339 1149.060590 1216.103452 1286.622998 1360.739167 1438.574642 1520.250910 1605.875218 1695.498143 1788.977245 1885.548873 1982.599897 2072.849333 2144.406529 2180.602038 2190.000299 2202.457822 2293.837160 2460.235740 2621.135711 2781.925630 2946.975473 3117.532369 3294.105641 3476.982553 3666.389027 3862.536682 4065.632193 4275.869178 4493.406712 4718.335051 4950.631173 5190.113067 5436.411986 5688.996079 5947.298323 6211.038033 6480.953832 6760.542215 7070.114355 7360.748425 7645.595240 8149.820732 8471.277676 8939.091655 9897.479189 10464.073425 11149.267390 12264.005617 13203.151844 14009.672561 14639.776712 15114.328030 15894.283013 16748.208554 17617.055628 18422.279119 19208.260936 20026.237894 20980.042406 21595.143104 22280.597867 23105.343481 24003.317741 24443.436181 24816.201787 24761.803966 2194.421653 2233.889390 2330.245156 2472.095178 2624.201259 2782.676520 2947.028640 3117.369789 3293.872285 3476.722542 3666.115750 3862.254313 4065.342552 4275.574197 4493.109589 4718.040836 4950.346619 5189.844805 5436.160541 5688.738616 5946.937237 6210.236102 6478.537736 6752.324433 7045.492537 7340.212807 7621.764750 8072.030667 8442.092860 8885.742379 9734.510210 10374.134353 11029.008408 12109.115270 13005.175757 13825.169112 14565.854567 15060.240770 15799.016564 16675.977260 17588.447776 18476.574726 19318.610131 20165.108482 21027.205137 21737.744739 22370.466583 23036.874457 23707.047204 24268.327687 24665.164860 24987.244819 25336.607829 2190.000299 2204.253406 2254.652598 2352.833867 2481.142124 2627.443440 2783.873019 2947.574678 3117.716856 3294.162444 3477.000044 3666.394412 3862.538333 4065.632680 4275.869253 4493.406488 4718.334162 4950.628170 5190.103050 5436.378581 5688.884613 5946.926191 6209.795697 6476.796711 6746.757751 7019.873789 7306.963331 7616.828643 7999.681763 8420.413969 8943.892716 9632.275795 10328.621282 11095.143772 12035.504571 12911.775466 13694.559069 14412.774716 15062.479479 15833.859980 16711.899529 17628.013740 18511.971470 19381.285428 20275.714763 21102.334423 21799.839571 22433.131684 23152.659349 23905.061884 24553.633719 24962.018730 25234.194606 25364.403789 25369.706507 10480.548317 10515.458664 12800.713968 13254.175590 14388.575554 14818.224421 14824.755457 18592.007405 16313.134748 14347.363490 19371.807461 19750.386322 20860.819395 22007.083579 22128.534561 21810.199529 23246.478086 23477.790193 25352.262417 25387.166968 12804.479449 17219.127031 13126.156688 17447.609318 15418.706328 14660.374369 15136.666712 18307.411827 18181.351465 18738.854787 19202.871121 22005.560025 22885.732226 21949.992753 22996.147504 21277.496209 24424.074818 23063.124524 25398.574435 25993.171462 15512.966185 17585.505696 14058.527018 19375.458988 15126.596766 16872.509756 17327.228501 21749.035069 20239.150849 20460.717576 20942.258713 21724.720603 20584.195468 22439.123300 22356.471337 21468.926158 23267.296024 24080.436128 25403.340120 24979.544671 18924.922313 20146.818244 15843.505560 16945.338340 17676.444293 22486.827187 15880.674763 20555.169735 20427.176603 21439.457482 21957.889939 24637.715075 23114.223802 21828.054671 21899.788834 25211.857967 24005.634830 21399.773963 23691.645216 23414.074292 19642.324419 22368.171771 16629.056158 17353.157551 20966.550111 19468.205832 16194.681327 20937.334262 19935.639172 16329.257263 22184.795177 20850.305963 21480.498750 21990.908778 21988.732428 24391.169608 22415.165380 22224.867119 22216.967868 23140.422771 13840.162397 18595.799666 15266.523448 15099.308109 16877.741935 17797.300003 19729.016162 21897.650188 19343.805915 19706.562011 21335.480801 25151.413617 18521.736566 18712.700811 21572.433148 23500.265331 21892.407857 23596.934180 23715.792107 23818.583358 19733.198888 16945.070651 18673.363525 18550.628897 15313.330442 21419.242171 21444.453825 20980.601643 20392.606571 17167.490348 21059.122886 21401.174779 23162.574287 23147.324940 20939.765458 21197.697739 23358.594287 24650.745232 24166.947822 23998.033062 18284.127906 14668.498566 16108.727958 18069.948478 17689.914222 16106.798190 17027.884353 19807.534462 20625.516949 17896.530196 22181.276700 19933.993176 21144.438349 21865.310773 21841.914057 23588.393174 21745.297582 24667.818301 24602.987909 24320.886871 15257.373650 14692.277655 16397.763420 13891.018496 18149.473691 15542.763653 18607.609687 16010.567636 16251.211897 17185.158947 16128.877927 19039.958648 19831.716097 20865.835558 21090.413733 19659.894961 22097.804611 20084.746472 24522.558964 24653.974453 15046.798037 15633.645383 20122.051291 15363.717247 15736.894625 17387.316142 14774.058254 14866.178874 16703.333632 21621.812703 19929.836489 19126.017547 20489.811967 20378.793232 19999.258711 20659.877504 24662.280328 25460.726371 20600.008855 24223.721088 18070.291695 18544.341152 15605.184894 17406.142345 18297.052664 20351.696390 16574.457194 16367.445555 18851.076964 19153.416832 17112.238783 22511.691595 19582.629209 25361.345635 21001.955135 23244.557980 20520.156396 23470.645924 24200.963192 25518.499458 13829.932612 13739.434466 15304.100459 16935.879200 15048.591841 16610.028867 15640.863750 14486.556123 15766.855868 22972.623921 20149.007491 16023.959031 20500.531190 19076.782977 18764.981905 24157.435172 22261.014120 20712.691947 23242.197467 23798.501876 14813.751069 14252.666480 14714.970160 16638.659465 16107.642258 15025.119642 15414.468756 17512.619790 16863.001705 16504.156050 14768.355986 21138.711556 15699.084611 20954.902671 21173.189657 20229.133608 23541.656961 23579.764963 25349.884593 24673.578630 13015.538143 13210.237529 16017.223236 13588.470250 15955.624096 17589.401114 15971.318988 17380.774076 14370.308888 19229.156359 18324.604105 19297.431375 23431.511466 20738.559030 20974.249556 21906.466176 24899.876941 24810.168060 24150.098605 25677.315136 17209.639616 12733.190258 13838.766474 14585.034254 15665.346787 17543.951401 14930.400070 18359.080459 19235.638835 17058.697631 20437.965236 17723.160981 21172.540085 22974.030779 23185.474567 17192.171494 20418.801091 24526.879823 23474.585115 25429.345793 13623.579270 12869.570319 12392.146400 13199.196584 16500.685365 18975.858881 14754.573188 14134.026470 17558.308309 14588.148767 17600.444311 16227.098374 22592.226319 22080.154092 23636.863206 22291.683637 20106.725890 23690.956997 21791.318448 25141.502360 17498.332989 13080.238867 12494.829880 13604.819882 15151.124504 14529.426367 15151.473811 17368.022506 17117.823968 16246.742008 15010.605303 21245.370222 19399.601388 23118.819967 18388.908154 23191.130933 19665.350111 21647.855082 24530.231249 24635.590559 11921.666063 12671.600494 12773.267429 12756.569644 12939.317090 13887.624973 15277.649841 14073.663787 16030.484542 15352.104473 21080.946458 16190.596635 16513.988564 15998.930178 22171.103657 19631.890915 21522.891425 24292.496644 23196.150036 24638.154839 10794.887782 12536.985922 12913.819273 13110.003931 13042.628929 12956.329055 14149.559750 14569.001006 19170.545814 20838.408780 18709.614722 19759.449139 24162.718806 19295.262786 22798.426776 23055.158532 24089.865704 23551.387367 21876.183292 23432.478048 12780.540292 12432.808424 12775.871095 12947.782026 13627.498199 12847.806522 12876.445245 18943.227868 16070.823846 15557.858198 19295.196531 17363.683146 24942.034595 22203.409540 24289.282915 24008.068850 24751.391988 25301.080787 25049.510472 24725.578134 10757.823315 11708.060700 13065.103613 12916.138046 12610.067405 13842.023924 13794.081401 14650.393283 16115.611055 18040.946168 16862.923216 16562.546748 18446.064797 23271.870863 18604.772401 20216.207197 22188.948918 23004.384522 23576.093128 25193.205535 10066.371898 12155.159459 12921.847851 12389.712018 14981.143178 13542.657749 14512.884253 15316.686103 14169.727378 14510.500002 21475.501656 23793.907835 21902.268599 21975.773538 22506.851900 18309.774861 22731.239269 20951.460162 24607.864170 24743.029658 14368.466433 12896.900349 15446.479807 13011.651697 13328.752377 13121.290557 14747.844426 14339.784516 18214.168986 18171.617527 17110.196794 21549.540669 18118.293789 22929.241013 15535.736973 23652.309258 23138.468024 24119.737973 25306.049335 24208.578798 12434.206690 12939.643606 12788.985587 12511.557463 13742.292504 13059.783007 16793.121332 15424.842355 14028.341723 18260.141233 20630.013913 19907.159210 20845.756067 22163.018195 24211.614446 24874.672738 23907.337546 23768.636174 23854.604266 24697.525047 14709.674498 13367.954489 12562.978159 12706.666164 15148.981761 13416.547547 13570.324610 16663.478769 13704.335190 15403.313659 15270.774069 20499.353354 15847.610434 16317.270213 23956.110383 23299.301312 24850.710739 23095.456194 23224.148086 24130.067614 13089.032356 12859.945252 13348.119153 12633.225205 13930.531255 13077.653376 13216.609727 14670.766527 14499.313982 17565.265821 16848.655036 17594.648615 22196.356837 20374.946725 16120.803838 22095.970748 24004.572999 22709.047089 24218.141157 24698.646924 7613.537036 12388.815877 13924.831807 13216.472161 15413.309919 15515.551625 13161.879957 13554.180303 14254.658004 17171.033493 15877.060206 17767.167509 17621.507566 19872.737516 22966.799727 22641.921821 23439.993969 23049.522870 23934.641489 12304.664732 12590.577812 12951.194807 12768.621104 13765.626292 13884.395678 13016.094567 15994.768589 18721.372199 15183.425963 16859.620500 19428.101277 22800.732240 16514.908989 23859.240933 24059.581444 23800.284674 21713.589623 23525.312174 11473.250441 12556.218052 13210.337010 12843.621650 14024.290389 13924.037307 12927.570530 14130.800953 16177.067141 17501.059193 18985.295128 16610.996855 21241.326569 16127.347838 22013.460158 24154.859120 22384.620766 22806.527681 22998.627366 12246.590981 12781.919153 13166.587989 12805.199529 13765.870286 13139.649911 16897.960249 16332.333941 15869.555041 18934.662831 17765.546685 16666.648920 18062.697434 19083.210525 20103.109321 19574.666182 21433.908585 22136.063061 22833.236093 12685.102035 12540.291360 13365.975734 13413.895423 12923.752738 12700.768482 14235.676734 14537.740164 13595.405402 14184.461647 16819.323176 13557.238877 19473.990798 17597.597891 17644.018176 24070.104958 21969.540201 22620.163346 12298.917324 12553.630821 12727.155093 12771.219227 13420.353501 13351.225270 15026.481716 14052.753473 18423.870326 15958.940619 16732.283139 20512.003564 18960.315577 21698.996443 21643.734677 21929.221854 21335.418043 22218.611190 11119.906555 12304.665873 12548.884185 14101.719286 12981.524947 16623.374847 12827.809335 16008.872132 14433.687575 17024.258505 19732.773549 20345.908145 17803.088130 21642.782870 17442.612875 22803.846328 23241.692616 11064.841703 12331.163005 12618.026687 12915.677729 12922.448128 13812.051896 19074.110064 13211.146741 13912.097792 17314.577579 15119.912560 19555.344739 23038.180621 20979.301647 18787.759070 21118.912201 21493.602152 12673.945890 12286.355082 13740.342440 12458.456545 19331.779976 20852.459513 16103.783348 16959.662899 15527.962483 23310.365111 15525.831471 21750.736266 20944.195109 22252.154582 20832.221415 20469.336620 21668.785358 21671.979985 13622.687393 13229.669250 18599.245659 12790.212166 13002.109109 13037.154830 13746.338094 16017.510563 19070.559920 20021.254235 21104.390267 19896.964343 21785.427143 20450.523199 21275.625826 20784.518928 12650.610817 12020.572771 14542.450958 13131.701297 13319.229470 18562.441705 14811.321359 18589.425022 19941.197292 13723.185718 20839.878307 21091.156865 22551.981671 20085.791878 15456.391544 20206.585608 12332.463493 11785.455199 12059.873388 15170.092171 22172.302994 19336.549538 18892.658450 16696.246850 18365.538215 15274.902259 16863.289571 21621.599282 20457.454333 21500.594538 23397.692895 20175.414185 13189.155579 10742.213529 12881.155910 18371.692955 13631.750544 14323.607279 19954.614780 13363.697929 13515.435476 20411.391174 18296.462898 21756.584053 21240.284233 22805.482716 20066.878837 10750.549100 11678.393194 13268.900369 11946.282936 15181.616846 12829.378919 14527.961396 17820.595398 21038.677003 20299.281477 19711.477995 22918.680133 20107.835461 16677.779071 20004.819125 13157.560655 8127.808334 11735.156093 11929.934924 13975.481306 16043.066100 12813.664081 17384.152157 21178.131392 16190.348397 22596.221187 16695.263910 21303.109388 20283.799575 19829.821569 10385.277668 12155.639503 11071.383907 11887.806696 14402.558275 14091.174657 15560.002341 16614.769308 15398.834499 16184.827991 21187.573751 22601.443097 20854.758320 19530.168449 14531.981230 11291.775094 12992.680493 20223.569805 17465.477371 14881.012141 12632.993628 16454.761016 16950.323119 21027.252567 20350.023222 15904.093409 20028.202159 19039.053812 12445.864182 10201.314915 13320.715070 13634.703908 18816.713703 13068.096290 20241.587457 16882.833074 14173.511398 14626.109837 19830.085921 19926.636769 17527.615443 18661.984613 10135.211491 17493.649384 11724.089877 15497.059101 17535.231640 17422.739833 20832.645747 16594.816562 18690.074077 18302.358820 21603.384646 18499.659175 18351.448806 17704.970568 13777.797048 13497.379765 15771.728099 11240.950104 17494.598116 12551.572001 18686.504516 19671.756220 20870.758875 20769.358697 20181.844947 18059.661862 13857.704809 15146.983948 19778.375932 14739.255214 17639.515052 20080.424538 18883.332545 12298.173667 19900.732317 17945.129678 20464.450977 17554.880359 17829.096084 15311.614471 13378.128209 13701.535541 18113.402926 12265.125270 18291.184645 13440.655340 17550.813751 17829.414825 18251.526984 16391.712082 17400.753087 13418.112139 13714.402668 14073.455269 12344.768817 10817.336397 14085.662590 15951.733935 20667.732567 14913.276969 19339.449828 17406.098641 17392.722958 13287.723471 12336.821826 11602.650677 18881.209251 10798.426492 19709.524395 19346.546742 16922.348722 18800.360525 19642.336076 18265.406110 17391.109317 17392.806768 7798.720162 16659.412005 15658.425951 18564.509660 15199.362918 14028.582256 15719.426453 21445.194827 20086.876886 18225.005454 20304.897481 16547.606796 9854.631594 13605.353021 14505.334416 19369.499690 19526.817357 17883.000463 10595.196905 20918.047152 14117.053175 16223.628343 10453.498293 13126.724450 12668.702789 13454.176123 8967.616445 19032.803841 16845.452739 19334.083543 15966.603761 18062.967959 16086.873520 12440.511584 17333.903819 13737.490664 15974.007552 16343.273453 12535.040375 16205.445620 18285.980336 17513.478056 15788.083630 13659.239853 14542.582353 12471.782036 17819.505575 17480.666640 17382.214185 16474.974197 20699.562112 21059.568544 18273.365143 1139.967086 10198.887350 8116.734770 17716.120825 14295.948683 18017.399512 14635.800068 20977.961940 18609.569954 15645.311465 4772.219542 15879.752146 15419.268722 14273.112578 18686.480029 17077.173528 18643.097407 19254.080415 15604.879386 11375.626681 10314.495134 15575.325696 13056.655080 15346.551995 20222.398224 16084.175464 13281.371519 15505.701101 11605.267878 10158.523994 15838.653211 16366.134660 19393.834478 18039.362748 19822.662661 18430.033252 14935.240874 12673.879670 15511.187383 15122.455473 16127.573842 14793.302184 16299.232312 15726.264331 21082.309705 9001.388869 11467.249699 10440.287514 15119.850382 19481.596793 16352.592423 13436.113565 16681.476362 3542.692997 15708.368436 14752.868307 16205.979500 14007.408109 14883.219538 19415.367178 14409.399716 11478.531827 7513.805119 15237.593742 15246.676851 15996.404793 18338.738250 14884.196833 11741.710593 13792.791858 12808.815835 12709.070590 18440.950550 15898.901875 13622.421175 13118.485966 12239.622927 18112.218189 6912.778430 15460.370016 17068.545590 13620.900269 13621.210652 9439.681434 15320.502627 16694.994118 13936.754424 13363.224184 17366.368790 1066.448484 13980.136567 16136.539671 18052.609279 14630.761154 19042.035960 12325.911542 17071.959947 13833.338280 14207.563788 14093.818013 12839.829976 1416.898132 15079.065071 14310.884803 18213.066828 12447.701235 10782.101320 15748.371460 14868.366621 14636.268729 17929.464794 7925.573980 13344.444661 12851.898656 10376.781571 12404.891890 12467.545464 12256.352528 12765.070008 14382.109125 12305.244789 7911.003249 12510.208646 14310.705221 1527.052152 12949.809035 11744.236828 11335.831061 13592.714402 14117.500817 15570.633237 11316.818093 13715.885267 8132.059450 10734.700406 12345.854499 13749.373756 10635.986306 12481.425578 17268.579955 8778.880763 10361.439270 14584.024743 10123.904943 14916.169542 9684.572123 9619.641050 12185.217478 15229.401294 13482.214330 14218.269078 12564.076212 12601.999359 12783.385946 14762.802606 12201.249203 15639.596476 7486.173537 14772.393431 8475.051927 8504.917927 13791.570524 11350.764588 13894.549780 12589.682944 12980.875127 13635.875691 14378.501038 14136.549242 14692.824287 13122.051344 17913.258587 15874.440849 13616.279560 12951.266730 14224.759965 14487.325065 14677.937851 10933.993671 13807.117651 15380.282099 16322.276234 13466.803595 17797.827611 18305.656826 15372.896742 14064.574858 13813.206095 11704.428620 14139.664983 13853.923570 13356.765062 13069.038873 12032.279264 10476.490190 12983.179685 13852.128534 16740.167539 12515.151961 13550.343296 17622.914717 18316.740315 15749.319637 13291.742606 13711.140258 15046.469276 15734.871433 12404.135090 13682.779415 15012.940388 13675.254142 13917.423197 14065.105430 14789.399005 16907.323329 15706.415180 13607.766071 13483.940727 13553.210496 16668.687633 14365.321451 20469.907967 13787.263626 13874.555389 12534.456653 13639.191539 13010.608509 12701.636001 14488.593426 13616.175418 16263.291651 14498.831692 14049.456000 14196.870294 15232.759447 16142.192057 13418.241219 13116.271140 12946.013273 13426.304628 13378.926915 13182.636200 13336.499650 13440.210143 15298.845002 14394.048818 14651.475508 14968.133504 14260.422600 14616.916249 14792.142928 17573.709219 12704.230392 13449.753456 13126.585202 14823.666959 14048.693251 13542.873372 14095.405136 14248.044221 16511.123422 14220.496784 13615.160525 13942.264058 14410.402329 14097.843286 18016.488893 13106.695634 13210.006845 12869.636374 13820.561084 13149.688450 13630.176184 14954.961247 13366.520619 14226.910216 17240.387217 13982.252850 14226.284539 15148.405887 14790.899977 14360.479382 12752.903486 13347.531667 13556.571587 13249.937402 14090.235655 15165.482866 13707.659122 14361.056143 12950.782737 13448.709087 14745.547686 15184.171142 15299.657028 18293.193725 17283.905272 14872.017323 13121.691010 13548.761669 13458.339360 13601.071035 13523.285170 13160.894526 14230.244020 15765.109991 16801.068709 14684.468270 13789.142659 14299.791547 13893.117013 16334.265500 13852.824624 13084.936476 14019.955404 13531.536526 13657.880986 14479.842762 13125.828894 15515.711859 13490.069646 13364.011660 13655.410580 14751.416676 15233.206476 13901.939147 14455.946398 13290.514312 13158.939294 13046.929564 13537.876793 13321.364350 12856.927657 13208.682204 13347.179852 12256.714518 12180.422369 13458.616113 13893.864898 13093.961164 12980.017681 14165.152681 13164.172493 13520.474598 12837.983521 13269.442803 12246.272181 13167.137375 13601.932315 12290.566952 12856.032665 3087.339519 12217.723957 12827.600333 11591.485793 14512.527660 12748.945290
</DataArray>
<DataArray type="Float64" Name="Velocity" NumberOfComponents="3" format="ascii">