<VTKFile type="PolyData">
<PolyData>
<Piece NumberOfPoints="2186" NumberOfVerts="2186" NumberOfLines="0" NumberOfStrips="0" NumberOfPolys="0">
<PointData>
<DataArray type="Float64" Name="Pressure" format="ascii">
 31452.541742 31243.153366 30724.928594 30561.249075 30739.738778 30535.754605 30710.530989 31138.597524 31176.296435 30990.366020 31040.136055 31177.573515 31655.664664 31615.102212 31097.058225 30409.193553 30026.723477 29768.352065 28831.594583 27835.009616 27524.249398 27967.291420 28354.807021 28485.576117 28037.700735 27429.222890 31175.332491 31320.122261 31289.246431 31146.528611 30983.505152 30748.197258 30590.852822 30717.285878 31081.110894 31470.713317 31573.684576 31576.168691 31537.504435 31571.476043 31570.715448 31231.843006 30704.985128 30218.707825 29785.740352 29404.999267 28934.795792 28569.448145 28546.672187 28602.951756 28409.311833 28198.617920 27805.607709 27330.194349 31111.284700 31143.846151 31176.347258 31106.908515 30970.446130 30793.962514 30629.566689 30621.858110 30750.277492 30931.127475 31105.575839 31162.720554 31132.474241 31178.375610 31295.916002 31318.222876 31064.270395 30603.863447 30174.249140 29815.692322 29496.380399 29217.088209 29013.119920 28916.475963 28796.688117 28576.061113 28217.214907 27651.834776 27282.974487 27429.222890 26648.364637 26383.327130 27139.612565 27194.306497 26726.814257 25477.523221 23767.603129 22733.862717 23444.821148 23629.538278 23282.386954 22061.231996 21166.332726 20928.669688 20803.434727 20534.748932 20042.147539 19331.778605 19202.590297 18886.165147 18951.046177 18182.431745 17831.549789 17655.034940 16967.395469 15727.978507 15166.598622 14782.951012 14636.958446 14679.281607 14729.743242 14420.788610 14124.399689 13528.465438 12739.268747 12014.609107 11577.444219 11047.189513 11702.963418 12280.682613 12123.166196 11529.610917 11132.945699 10935.232162 11075.727013 11022.858750 10606.531553 9839.882527 9321.987289 9336.320642 9123.016475 8904.916346 8359.319685 8220.105910 7784.271430 7721.535700 7935.656341 8203.425174 8756.872824 8879.979049 8692.725424 8618.109359 9205.812149 9954.894787 10434.193808 11494.629266 11900.918147 11995.148893 13082.606628 14574.958327 14495.529018 14015.166490 13422.877636 12938.994595 12804.726922 13488.306148 11942.343830 11707.238378 12008.782208 12328.668560 27330.194349 26927.904989 26701.076845 26686.564085 26517.416521 26179.506407 25540.436702 24669.055730 23861.263517 23566.995591 23537.834651 23178.506640 22173.423029 21364.146326 21022.724598 20855.358171 20554.753708 20033.727621 19509.638201 19176.117704 18872.486417 18436.713702 18059.227049 17697.865396 17235.892170 16501.663853 15659.867304 15240.232531 14896.659537 14773.962203 14864.942484 14704.509238 14382.492656 13999.004064 13563.393614 13122.229702 12376.192432 11599.676266 11494.114084 11908.050188 12158.583005 11902.447617 11371.250378 10994.680723 10738.632897 10658.592542 10543.693273 10184.896857 9847.501006 9582.017847 9397.127966 9162.342589 8796.821386 8457.130774 8201.694054 8016.123117 7902.619614 8005.676074 8317.870782 8600.673472 8793.913113 8979.380845 9278.568897 9961.045583 10827.903390 11400.935924 11667.394259 11968.963672 12271.290515 12692.172000 13323.376300 13540.603943 12821.377541 11946.824584 11419.188360 11440.770490 12014.882599 12525.742761 12686.610981 13242.192177 13779.625224 27282.974487 27046.201646 26743.357248 26516.301183 26256.356873 25874.139919 25368.852051 24836.508242 24419.420538 24021.419144 23580.719616 23017.600448 22318.754691 21673.922367 21178.450549 20800.018332 20426.563156 19980.993225 19567.646545 19263.499124 18964.381260 18557.867392 18140.394684 17730.054284 17269.395031 16690.157106 16013.141305 15421.461684 14989.500743 14726.453136 14610.201723 14466.619499 14225.448279 13948.246584 13642.243915 13297.983751 12870.763316 12381.975398 12055.052021 11935.279852 11849.312684 11646.224680 11318.801709 10999.545498 10738.023410 10540.768876 10394.971964 10206.943417 9962.433030 9682.201869 9381.152856 9103.427914 8828.841688 8560.991045 8343.919431 8220.002765 8175.885156 8203.409590 8323.124153 8482.545444 8673.085942 8928.786850 9258.762293 9700.835408 10244.519527 10772.570938 11185.431634 11481.250948 11720.507927 11946.980389 12128.226476 12091.572553 11715.832252 11210.907422 10891.170337 10961.324833 11473.913263 12265.704594 13061.489522 13804.493497 14497.885721 14755.000248 12328.668560 11612.699783 10617.497077 10023.914259 9535.799106 8976.270114 6720.583271 4468.311563 5225.191226 6601.388391 7480.065331 7531.221732 6915.034354 6095.161435 5296.886547 4594.281607 3984.244430 3441.403961 2945.007653 2485.180205 2059.758699 1669.237733 1312.680314 982.300663 668.474398 505.123366 13779.625224 12821.655647 11973.159326 11204.051935 10568.006602 10141.807011 9665.068839 8587.141848 7174.240787 6835.548109 7360.573693 7815.022075 7804.783390 7291.581100 6518.242469 5709.618838 4975.958567 4338.279713 3778.370255 3272.568153 2805.535332 2371.268757 1969.263581 1600.630160 1265.899727 965.006560 703.878048 535.835921 463.271690 14755.000248 14149.534595 13148.008365 12150.097216 11362.198119 10796.755644 10419.624307 9969.003894 9144.400374 8215.098147 7826.194248 7969.780829 8115.092412 7905.116617 7312.800926 6515.969373 5701.774870 4966.456443 4327.745744 3766.924249 3260.396334 2792.930652 2358.596726 1957.014532 1589.749883 1258.839077 968.343244 728.403361 554.776078 466.966619 439.761269 505.123366 424.840721 308.290196 227.725951 169.146584 125.050475 91.715398 66.656192 47.994122 34.243634 24.222472 16.997572 11.842481 8.200136 5.649900 3.878912 2.657833 1.820865 1.249712 0.861008 0.596668 0.416645 0.293579 0.208930 0.150207 0.109034 0.079805 0.058763 0.043379 0.031935 0.023248 0.016487 0.011048 0.006478 0.002417 -0.001442 -0.005373 -0.009648 -0.014550 -0.020390 -0.027525 -0.036375 -0.047443 -0.061334 -0.078783 -0.100681 -0.128111 -0.162379 -0.205067 -0.258074 -0.323676 -0.404594 -0.504059 -0.625899 -0.774629 -0.955546 -1.174844 -1.439727 -1.758543 -2.140912 -2.597875 -3.142037 -3.787721 -4.551120 -5.450441 -6.506051 -7.740602 -9.179143 -10.849208 -12.780865 -15.006733 -17.561941 -20.484037 -23.812818 -27.590086 -31.859310 -36.665195 -42.053131 -48.068542 -54.756102 -62.158843 -70.317143 -79.267612 -89.041893 -99.665404 -111.156061 -123.523036 -136.765613 -150.872238 -165.819870 -181.573785 -198.088044 -215.306946 -233.168075 -251.608416 -270.577692 -290.072215 -310.230674 -331.731705 -355.711687 -369.691281 463.271690 441.894634 377.965731 293.926800 223.293807 167.468281 124.257677 91.249279 66.339772 47.764497 34.073399 24.096176 16.904584 11.774738 8.151346 5.615158 3.854441 2.640770 1.809076 1.241632 0.855508 0.592943 0.414131 0.291885 0.207786 0.149432 0.108507 0.079444 0.058513 0.043204 0.031812 0.023163 0.016428 0.011010 0.006456 0.002407 -0.001438 -0.005358 -0.009620 -0.014508 -0.020332 -0.027448 -0.036275 -0.047315 -0.061173 -0.078582 -0.100431 -0.127801 -0.161998 -0.204600 -0.257503 -0.322982 -0.403753 -0.503044 -0.624680 -0.773169 -0.953805 -1.172775 -1.437279 -1.755657 -2.137523 -2.593912 -3.137422 -3.782369 -4.544938 -5.443331 -6.497907 -7.731315 -9.168601 -10.837293 -12.767460 -14.991722 -17.545213 -20.465489 -23.792356 -27.567632 -31.834807 -36.638609 -42.024459 -48.037815 -54.723392 -62.124269 -70.280875 -79.229874 -89.002968 -99.625631 -111.115840 -123.482816 -136.725890 -150.833535 -165.782707 -181.538625 -198.055157 -215.276042 -233.137194 -251.570415 -270.508764 -289.893151 -309.674670 -329.741059 -349.459741 -363.231769 -368.701276 439.761269 435.564316 409.088056 351.970805 284.473261 220.583119 166.977224 124.392934 91.516060 66.595773 47.975812 34.238086 24.220791 16.997063 11.842327 8.200089 5.649886 3.878908 2.657832 1.820864 1.249712 0.861008 0.596668 0.416645 0.293579 0.208930 0.150207 0.109034 0.079805 0.058763 0.043379 0.031935 0.023248 0.016487 0.011048 0.006478 0.002417 -0.001442 -0.005373 -0.009648 -0.014550 -0.020390 -0.027525 -0.036375 -0.047443 -0.061334 -0.078783 -0.100681 -0.128111 -0.162379 -0.205067 -0.258074 -0.323676 -0.404594 -0.504059 -0.625899 -0.774629 -0.955546 -1.174844 -1.439727 -1.758543 -2.140912 -2.597875 -3.142037 -3.787721 -4.551120 -5.450441 -6.506051 -7.740602 -9.179143 -10.849208 -12.780865 -15.006733 -17.561941 -20.484037 -23.812818 -27.590086 -31.859310 -36.665195 -42.053131 -48.068542 -54.756102 -62.158843 -70.317143 -79.267612 -89.041893 -99.665404 -111.156060 -123.523034 -136.765606 -150.872214 -165.819792 -181.573530 -198.087210 -215.304214 -233.159130 -251.579121 -270.481739 -289.757742 -309.202962 -328.306058 -345.746452 -359.421911 -366.360018 -368.205662 -369.691281 -386.058289 -416.380245 -446.945296 -479.598994 -515.995057 -557.231273 -604.337848 -658.189121 -719.013022 -785.819672 -857.540900 -930.558068 -1003.431305 -929.211093 -667.879497 -775.687322 -1024.402760 -1131.602273 -787.556827 -88.108954 572.140137 897.433465 414.012609 -11.295847 828.548092 4237.424000 6679.592891 6942.016394 6423.675585 6934.673671 8259.905628 9399.986035 10348.467609 11328.605201 12608.202817 14113.954725 15867.468654 17907.890058 19877.043652 21280.451549 21729.465183 22826.968144 24069.041289 24532.422442 25343.064273 26751.268110 28014.511452 29372.526388 30763.449542 31452.541742 -368.701276 -375.521816 -392.618967 -418.441937 -447.384006 -479.587052 -515.820435 -556.974055 -604.031019 -657.935386 -718.940031 -786.019579 -857.720541 -931.798668 -1001.122567 -1041.618033 -1023.562476 -1059.232852 -1200.220394 -1220.397534 -941.591772 -409.383820 60.240438 130.974782 14.537557 208.662271 1090.524140 2991.206070 5047.167425 5988.579043 6596.274547 7788.383104 9336.986068 10587.928870 11415.086531 12150.613273 13244.663744 14707.934850 16212.310234 17907.412666 19646.227281 20731.479362 21656.320409 22995.640965 23916.343727 24539.159625 25498.983841 26666.091792 27921.341083 29426.215655 30710.260413 31198.418464 31175.332491 -368.205662 -370.602668 -379.318552 -396.706408 -420.115851 -448.057070 -479.937163 -516.095186 -557.256875 -604.365075 -658.359628 -719.447066 -786.611201 -858.316619 -932.837009 -1003.288315 -1058.153348 -1106.273694 -1181.339760 -1269.944313 -1252.661756 -1061.681466 -694.260935 -317.366371 -167.202943 -129.476320 172.374391 1059.225434 2553.093406 4200.382457 5548.157720 6805.696351 8294.862658 9893.885979 11214.959553 12117.326708 12903.423848 13882.867333 15091.171634 16441.658522 17998.858645 19629.707480 20942.560086 22027.984698 23024.722933 23915.483771 24809.584658 25822.617000 26888.754697 28018.783246 29216.805907 30222.905112 30818.524414 31052.019092 31111.284700 6455.131647 7605.633956 6871.014255 7079.347421 12010.700209 12781.565800 13482.303191 22531.666243 18061.140088 7373.028701 21986.842319 22967.941428 23465.812581 24865.155220 25154.425042 24009.497147 26318.654276 26980.017635 28407.379762 30279.566669 7207.720809 17021.382427 9061.482363 21411.123926 13126.442993 14257.768573 9752.645487 19132.037446 19807.977671 20043.935120 22847.314218 25441.600194 26054.195531 25252.950089 25925.904203 24666.368718 27669.687958 28191.179518 29570.228475 29870.929651 13879.130785 9301.885414 7909.858855 21495.585954 9874.015342 22572.233490 16319.000365 26986.506243 23262.235065 21577.258596 24229.198770 23989.944006 23154.318616 27594.132283 27989.929680 29869.161146 27433.666067 27139.902042 29757.984332 27873.436785 18538.078471 23792.692540 15922.112999 21731.066675 13922.452815 23023.129626 15918.840316 21120.692797 21259.928714 26040.173599 21822.489475 28024.264465 25344.972584 28404.083978 27154.806252 27808.571571 30224.526854 29468.510012 30387.206531 30274.968575 17456.926324 24057.740883 13939.922030 15622.527804 22183.458670 20020.607760 21053.335282 22493.882661 20990.228951 18348.157277 27157.720688 26331.051964 24803.485548 28867.062110 26345.688098 26953.831015 27308.168050 29483.780427 29435.773662 30395.820482 10588.552328 18836.519027 10428.713500 12513.497701 12349.230506 18579.035519 20864.801106 27726.990742 22524.993077 23469.784465 20323.560590 28069.523947 23478.173847 24607.459561 27902.325316 28244.373989 27497.620792 28074.232965 28637.176560 30543.020499 22087.134242 15527.888996 20146.252953 15306.855417 12550.259311 19659.932037 25217.336200 24004.221493 23054.639889 21607.381207 26587.027689 25108.124691 26215.622234 28399.736639 23691.400636 26449.637186 27756.310913 27996.230520 30370.566572 30237.710171 18968.351173 19447.684348 14693.999151 19720.240772 19559.124073 21132.906259 16164.854629 16356.474040 21331.693620 22945.992046 28060.632734 23864.570027 26642.547672 27511.270438 26549.726882 28172.725947 25753.944379 28360.538547 29597.231357 30078.353415 16906.407622 9515.282436 17501.127670 10473.264467 18772.975182 15007.263175 21629.848445 17021.725236 18223.165645 22929.505698 17648.621818 21882.068439 20064.521960 24673.415130 25650.600459 24181.020474 27821.913941 25083.554713 29804.746403 29973.548326 11564.734219 17641.181572 21961.851381 7830.252133 15197.529495 21812.321805 16604.954293 19588.419789 19063.533010 23546.268260 22693.624462 22440.182388 24635.112127 23565.069613 22076.531812 26782.512105 29595.515654 28512.598620 26725.759990 30335.698310 17514.684744 20048.355007 14713.998574 14140.239926 19714.636026 21602.989410 17340.000429 22395.854732 21037.203226 20895.305981 21218.748158 26675.438686 23272.066801 27709.706765 23480.099268 28178.365356 25679.276509 29366.643511 30956.215075 28347.025009 7391.400199 7268.472525 12607.610742 14495.199351 15254.847240 16675.894649 13219.056308 11562.487801 20444.918475 25022.383761 25118.827700 23743.722761 26820.291163 21283.340729 24307.593916 28830.178138 28759.731050 27004.477424 27845.717956 31169.045263 9780.457592 11444.092691 14582.912852 15216.924028 18822.756900 15363.939695 11179.884837 20159.191498 22730.760120 15701.121882 17481.318191 25630.786184 20071.522894 24527.645814 25420.917340 24349.304089 27426.413941 29004.159486 30695.195683 30959.913046 6974.989826 7038.002630 14515.658848 8788.584845 12390.868202 18504.345555 13294.966964 18649.847276 18551.070151 23444.264209 18335.520856 23840.329108 26048.762569 27710.317147 27080.148592 25331.031371 29430.251398 28619.724228 28746.282967 30145.877370 11954.045537 5031.716202 9092.626895 9972.344859 14295.005574 20187.851507 17166.755282 22017.802253 19044.551056 20755.769688 20906.623727 20799.160543 24314.596473 25576.871473 25440.459124 23662.424540 23749.951516 29988.405002 27783.704174 29777.907698 8906.698172 5433.404795 4362.589542 7136.135965 16568.522216 20010.393961 14322.190140 12708.892166 20227.440528 19451.211226 21596.028113 22069.594675 25883.080153 25886.760887 26235.918620 27057.820135 22050.737739 27072.215803 26629.978169 29909.474402 3899.725107 6844.739359 4927.814002 7129.842191 11611.967555 9336.776363 17157.314715 19596.331188 17689.892655 18101.603603 16717.984931 22890.639829 23061.634577 24573.870664 16121.687720 24542.538867 25008.425681 27828.901117 28730.083338 29771.833576 3374.611345 3204.320019 3743.877586 4089.138742 10169.883192 12265.345690 13165.780809 16757.065066 16512.558498 18907.002587 23297.820810 23847.418703 23014.151279 21978.687428 24797.398042 22776.790331 26063.769102 29257.284033 26729.868239 27689.194085 3975.582858 4271.250579 5017.969484 8853.445391 5804.717532 9083.433416 12084.840401 14367.807819 19616.207307 21805.504174 22909.635059 21184.666585 26487.852669 24513.355610 25574.714692 27563.350766 27865.721368 28487.057535 25363.729913 27429.783473 4355.967286 2632.982784 4766.424924 4976.569461 6546.545184 5803.010849 8255.469445 16837.327502 17864.876126 14967.860075 20757.303926 18932.500330 25042.295812 25780.596466 27024.720087 26960.572949 26872.917712 27401.294828 27531.498909 29363.314688 10589.364796 2798.851316 4605.012671 5868.866013 5646.317303 8115.735951 12194.393067 10998.841890 11434.735142 19107.311406 22120.658566 20042.766377 24655.540198 26912.627176 26020.162556 24723.235092 23611.859327 26359.450796 25708.005572 27570.765235 -956.422373 12906.453536 4810.563393 4914.652867 6930.479174 8439.217332 11369.679054 13342.317368 13404.874989 15921.628983 20027.841581 20937.331653 22721.870800 23615.458746 25374.532158 22306.905661 23686.883517 26226.697458 28209.703666 27896.224739 4655.318942 4957.803691 6517.838301 5669.667799 8706.327462 6720.810786 8258.648621 6852.769956 17682.509202 18211.279377 17099.388052 21775.642395 20701.155107 22475.658848 20427.765743 27307.436274 27062.940502 27654.398383 27338.529063 28374.225932 4238.098032 5267.939578 5632.357105 6668.162573 5518.185108 7522.870492 12196.149865 9452.565284 10741.281201 19191.521175 17617.921069 22910.492923 24016.606128 23029.698243 25196.347494 25905.581582 26459.493360 27407.824161 26177.413129 27794.426627 4861.659732 4710.635287 3948.011643 5488.797274 10513.622855 11167.209756 9908.125451 14418.520092 12802.377285 15457.034287 16455.083466 20848.026732 17573.024854 18981.997353 23227.061880 21853.573119 26991.126005 26331.071095 25090.913744 26415.622287 5611.718931 4762.583518 5436.790839 5601.595801 11025.954122 8710.846077 11535.289996 9825.097347 13444.282849 15621.253622 14223.949943 15599.636397 21780.301774 20731.041882 18410.528177 22586.356509 21956.452105 26493.826387 26720.420119 26549.712159 3572.978415 3086.338311 5212.323217 6173.863422 10122.323241 9110.270901 8463.352585 14568.312359 13119.674330 14716.959864 14837.939340 16868.372577 15315.542181 21448.198957 22199.328089 24535.051904 22122.153665 27282.818065 26447.283671 3122.052684 3181.145843 7076.416937 4001.064123 5755.722828 6859.331178 7994.029465 12835.171087 12805.679404 14966.125337 16483.529334 20126.458981 19145.569338 19965.731489 22946.289328 25330.005496 23805.830590 25570.095739 27381.855747 2627.320970 4198.576986 6480.877160 4483.220076 8534.716694 7052.761491 9270.841906 9172.841305 12473.751828 13883.880630 17145.740346 14121.414143 18757.553441 18665.006199 21587.254266 22242.420057 23673.795082 23398.580176 27175.452463 4109.047222 6908.097052 4755.613583 5103.088945 7003.203213 11408.820268 10837.107087 9250.325319 13049.386992 13472.606954 14129.626559 18764.648496 17373.810152 20902.029632 20601.875362 19217.719672 22386.276621 22841.266784 26476.093494 3644.112586 3172.802302 6209.498170 6761.628432 5881.095298 5857.768841 8615.267816 9336.761895 10607.294156 10958.798169 15776.675116 14776.832271 16259.351008 18362.771697 17715.173775 20286.668646 19637.769680 24378.130652 3480.672573 3392.401974 4977.216764 6800.898101 5467.489179 6017.247418 10368.924231 10127.263962 10980.561797 11617.164966 13399.295345 16178.301920 16858.783031 18147.476145 18836.736313 20674.574450 23328.270987 22548.205212 4708.489184 3686.823212 4855.906154 7250.586692 7492.419153 9764.181548 4813.507008 12177.484116 14482.181528 13036.701628 12243.263634 17193.464445 15620.623870 18235.527660 19592.213159 18306.194741 24809.708409 3457.995197 3265.715255 4365.460091 7361.105808 8971.428692 7654.801193 14858.174159 7880.314626 8421.087407 14536.531040 16440.577468 15179.577356 20084.372972 19279.045920 24273.948578 22382.034825 23269.375171 4771.070816 3601.508668 3355.910487 3738.126989 6384.486902 12564.921387 12462.566594 10401.211730 12361.730927 17950.145164 16919.834048 15951.826923 19161.011680 23289.319100 18906.665722 20607.724883 23296.797786 23508.002999 11361.318725 3984.931316 8547.616445 4571.685891 6776.261425 5514.133086 12411.658683 13356.638205 16548.532547 18707.881172 15657.069774 18750.022077 17380.328935 18021.886438 18640.340512 21395.771596 5110.770199 3856.547700 7739.694521 5319.261292 7461.262357 7853.522367 10757.206947 14050.381636 10400.865878 10000.117740 16130.714778 14532.389703 18556.901873 20418.734738 17626.478362 20550.055358 3993.962167 4209.890990 3745.376096 5538.134630 9713.117073 10538.151628 11863.698825 13043.635600 8753.571620 13938.331605 17778.122446 15874.506434 18536.095634 19452.113007 20232.972923 20621.566312 3794.977509 3730.488908 3691.933046 6281.562376 5386.223943 6784.569571 11273.428592 5110.286985 7871.354784 11671.788896 13227.754281 17625.751623 19108.068406 19502.641973 20389.555288 4210.201620 2998.353006 4424.456687 5344.307688 6473.937930 6711.311495 6374.870348 10569.743863 9635.920493 13219.711454 17255.646503 19185.839079 16285.617237 11392.603826 20042.253721 4495.374512 3053.343946 4341.510853 3821.652749 7713.945570 8051.256875 4614.461486 7533.956343 9639.832322 9846.989158 14817.493899 11221.056032 18974.275422 17798.696855 19534.627606 3239.258955 4386.240461 3395.785264 3542.718415 5620.013971 7029.800265 9172.169199 11617.644132 9439.415930 8532.609609 16019.576219 16654.667356 18212.485436 19285.223812 10597.367708 4339.801174 5721.744497 6220.451769 7003.044365 6673.838999 7229.139934 9046.665689 8723.611358 10771.388796 17195.606749 17880.322224 18827.456959 19062.569439 4092.207243 3948.980749 5269.089062 5090.977507 8227.573567 6055.965349 10950.858190 10623.867676 8985.743502 9998.885866 15373.690958 11718.122352 12552.507216 18909.432852 5016.728705 6126.480395 4018.874706 5718.344636 9338.213200 8294.343525 10617.370859 11682.845879 13713.373916 12111.335794 11813.135066 16765.509027 18063.596954 3244.892449 4368.281197 6852.348420 8577.439626 4275.194002 8276.230437 6714.897737 8925.789083 11477.285245 12951.726565 14415.880683 17408.757539 17773.198302 -7381.638751 5840.562887 7807.705693 4168.522899 8016.169357 10369.390252 9557.317283 8412.132447 12976.251911 10275.816914 15228.778440 17919.135302 18074.879859 9798.601676 4264.175209 4600.358869 7714.803982 4366.098430 9856.863138 7077.609406 12423.813583 13288.968428 13755.591759 14312.021798 14113.634418 5841.353945 4555.118817 4285.249965 4414.784445 9038.230664 5236.069197 9695.173885 13198.904317 11462.088764 12525.621414 13417.218492 16115.281337 4479.297441 4327.677145 3133.291699 4920.278829 5197.728062 6701.825194 11003.795415 10821.285497 10634.262209 14948.396280 13055.420721 15328.573928 15337.438393 11047.803896 5909.559119 6882.197290 5261.435766 9052.024276 10096.486002 8883.758641 12244.932640 9077.675567 10081.903114 14360.818462 10393.338108 4534.400509 3929.457879 10476.776211 8740.813261 5847.468816 6978.528844 5859.758065 13615.202773 12178.923851 14329.006295 15098.773224 3280.205934 5317.990590 5283.740769 4546.209339 9844.396917 10520.962579 9939.602019 14480.326540 11217.586248 14419.594587 -4550.855082 3426.176101 4879.536244 4919.763167 7035.420067 8530.448538 6195.934541 9576.497635 7474.389090 14367.485351 8213.103975 5961.319181 5567.082027 5927.785834 5416.876673 5982.792296 9432.412065 11136.207781 9219.638680 13859.001487 -193.930596 4119.057262 6565.486122 4429.123978 5957.179850 7936.198747 11345.528459 11499.500303 11426.092674 13633.729091 29513.213426 5124.216829 4978.830478 6854.469970 8927.745348 7835.878668 9296.668865 8795.506843 12915.123103 6850.775421 4123.999304 5740.347686 7948.197353 8458.105672 8529.732544 10729.079007 7192.676629 12046.219018 19878.046175 3499.172734 4263.579770 7893.377184 7452.024911 7506.673648 10391.235603 11532.501796 11408.466725 14809.288098 11046.818369 5565.601673 7789.906863 8024.782744 7878.708405 11841.287591 11847.087441 17371.021695 3714.848488 3960.229500 4184.636290 9553.396001 5934.859045 10585.373113 11251.764220 14508.347624 5024.855286 6275.454790 5543.559094 5917.871625 10212.807967 11452.221472 12265.737699 6004.985701 6401.716310 7573.601112 7559.456467 7351.560525 7016.125568 6131.046333 15225.799644 7216.265997 5537.426315 8172.318291 7684.198057 10926.549319 11319.510047 37607.248252 10305.868808 5062.744423 8308.493606 8014.869054 6827.264411 11058.712381 11210.919753 9620.027255 5811.242823 8811.758574 9035.264751 7580.807496 10582.214642 5077.467295 7507.426198 8201.482981 8575.182459 5898.843771 10360.629300 17384.449499 9616.623453 6561.133907 6118.989158 8740.181756 10843.215441 10552.725234 11733.837147 8223.334763 7600.419215 10225.946396 18402.532759 14917.729850 8026.068246 8382.163677 7842.894055 9765.726166 11854.703129 8534.683154 7991.367522 9183.460560 16992.230428 13272.994514 11916.242778 6886.958695 25284.062443 9524.291396 9911.839500 8624.238333 9343.586510 12307.336603 8317.058838 8470.151203 14634.421241 19865.870612 6574.119818 8247.552404 -7212.080698 16133.423370 7932.628443 15715.441172 8785.316128 7709.290870 nan 7834.835846 15996.832024 8304.001866 21063.978112 8677.728616 10374.095800 8532.552928 8262.546989 -787.573858 -101.060385 1670.903451 835.958681 3262.570849 7506.771132 6521.502089 701.647598 6929.746133 9129.659459 3840.262396 8949.067428 8769.503831 8224.129227 8947.845608 2633.318699 9751.576717 7066.240835 10140.002608 8471.484953 8771.324959 11900.658324 8490.674290 8093.548613 14084.288389 11749.567114 5773.250225 9158.925049 6021.716100 11456.522167 9296.710741 6612.564906 3715.148418 13004.733508 17109.443752 11578.300857 11459.424179 18830.412140 8132.507850 13826.659424 7183.029085 7962.374871 11129.830593 9808.775076 8524.842439 7482.101740 4929.471680 6607.418887 7923.971962 7193.726544 11427.749034 6725.582031 6320.649846 14230.359348 16096.998475 13991.337881 6033.096055 10878.705745 17195.951073 14576.482604 2489.344316 5997.122813 8991.489456 5951.890455 7878.813081 6952.530708 10194.069398 15529.359089 11834.800341 9412.381556 10157.600285 10755.822987 13489.414628 8546.747942 19924.529329 5759.868222 5323.663496 3455.563092 5085.614260 3460.299006 6837.951500 8836.952627 7987.016948 12480.541322 12466.955074 15282.489332 8746.581100 14353.099001 17157.030136 11000.898693 3623.808911 2925.900882 4559.024893 4411.535232 4063.667766 5484.838729 6647.883203 15753.262314 7355.755277 15699.862031 10698.030144 13491.861283 12194.650907 13806.029212 17907.423257 6921.387432 3635.878375 3292.560899 7485.073887 6827.325613 7599.860914 8728.789469 7320.948381 12801.701858 11705.159929 5935.975391 10097.373874 8100.620209 14011.998414 19641.095911 5525.741298 3464.662604 2279.985116 6032.815570 5471.368651 5335.389734 8663.086613 5079.292864 8832.059625 12901.193368 11929.884359 14422.080931 8996.036114 10570.807513 10262.022247 3011.668708 6313.976374 4386.504648 6140.568230 6440.871953 10612.280863 12775.540785 9442.401406 4550.271390 7832.121754 13811.740890 13636.708996 10648.166154 15902.859063 16619.588686 6969.514989 3461.159200 5054.251395 4576.503460 4702.028601 4677.500567 5552.974267 8457.549940 12783.129260 13296.195337 8436.645326 10037.693653 10764.339847 10171.078964 15666.624094 8147.619847 3932.720290 6112.637186 7210.552161 4123.879635 9611.770169 5514.705393 11748.177364 5896.970086 4322.958503 6079.535299 10023.136801 8778.588452 6924.153897 8154.163495 4457.760249 3339.616054 4747.042623 5029.333380 4545.953504 6005.571226 3770.180460 5524.121508 4272.518826 4329.113044 5239.971651 7975.174013 4666.879973 3878.078531 7591.158022 3384.262181 4590.892496 3852.819539 4180.048065 3655.342902 4693.346410 3879.070581 3126.316468 3713.444289 21551.926724 3673.844829 5085.386196 3515.466169 3367.316700 4723.217621
</DataArray>
<DataArray type="Float64" Name="Velocity" NumberOfComponents="3" format="ascii">