<VTKFile type="PolyData">
<PolyData>
<Piece NumberOfPoints="2186" NumberOfVerts="2186" NumberOfLines="0" NumberOfStrips="0" NumberOfPolys="0">
<PointData>
<DataArray type="Float64" Name="Pressure" format="ascii">
 25556.132295 24889.254931 24236.056117 23882.806592 23753.790318 24037.592879 24054.880732 23997.606735 24059.863481 24280.610525 24675.387750 24770.219635 25351.806071 25699.585760 25762.093896 26323.062599 26569.957404 26049.958097 25553.980439 25224.917431 24922.584241 24514.210325 24223.563484 24439.897771 24609.776402 24790.827979 25163.077378 25497.893759 25461.342791 24879.310083 24297.599649 24032.497990 24133.218846 24204.349982 24021.623449 23958.367848 24451.242649 25271.470868 25663.876231 25602.969736 25911.629478 26753.109989 27363.244905 27272.756687 26852.157863 26479.876550 26214.507098 25682.199138 25012.706369 24575.656781 24578.258086 24817.426314 24849.395737 24729.560381 25048.973751 25066.016233 25189.061476 25319.217545 25290.719676 25223.123884 25181.391999 25087.794653 24955.415836 24868.965281 24931.005197 25153.179746 25354.557462 25374.011669 25281.961379 25463.903344 26040.108911 26405.489849 26191.915993 25803.686748 25618.143261 25570.599764 25415.007309 25141.762744 24975.132326 24951.816508 24897.708210 24673.443911 24526.582193 24790.827979 24645.232000 24367.528248 23828.403411 23754.131696 23487.687783 23264.343795 23263.932065 22890.433309 22243.082409 21379.483700 20983.651370 20934.562192 20817.813813 20658.541991 20714.238809 20803.255447 20194.818440 19678.902644 19384.722156 18976.520007 18679.106125 18557.483674 18263.729877 17918.359381 17689.605102 17503.642103 17386.150495 17259.539057 16984.891212 16676.881956 16468.520420 16250.513339 16002.895632 15719.038346 15530.372175 15529.919192 15396.376878 14928.543049 14456.956150 14200.854540 13867.527451 13434.128713 13148.956491 12922.540080 12953.073420 13105.099762 12799.093230 12529.880100 12351.333944 12044.341077 11642.790239 11107.498724 10943.827089 10922.292404 10890.081088 10747.804064 10438.040915 10114.039004 9767.911157 9362.293500 9084.319295 8971.763166 8688.793085 8425.244114 8190.108830 8221.975183 8057.138391 7690.359882 7542.861496 7692.537494 7815.055849 7750.114600 7035.594355 6289.052003 5295.231766 4615.799828 3987.088191 3224.959878 2609.686792 2344.396896 24729.560381 24693.452906 24798.430465 24590.244297 24025.235049 23673.532350 23789.000002 23854.236841 23255.296899 22443.162873 21784.936510 21288.057325 20905.916824 20894.332842 21055.603906 20950.798185 20752.662665 20580.621983 20125.201457 19459.393926 19032.090360 18813.230761 18596.583660 18414.665981 18228.686779 17895.169544 17570.328388 17391.837176 17159.138390 16889.787650 16688.827987 16529.949578 16321.290087 16065.894353 15820.675821 15656.580749 15601.894544 15430.634106 14969.511661 14486.842792 14192.805077 13857.957704 13449.217421 13181.613288 12964.011005 12884.982607 12817.351755 12606.250912 12355.330829 12161.270228 11905.293076 11509.848241 11143.886039 10981.104866 10884.731968 10766.834822 10573.516695 10321.427447 10029.260609 9693.783565 9325.571351 9036.341915 8814.082900 8478.755182 8155.755073 8038.750878 7989.545529 7788.689989 7472.594172 7316.333507 7398.356048 7399.935583 7060.034604 6425.657414 5672.887497 4947.308883 4255.995622 3594.024103 3025.604518 2581.025418 2411.545056 24526.582193 24418.774188 24262.730573 24218.056976 24034.588120 23744.978431 23550.862009 23304.739946 22855.562261 22285.253144 21848.904043 21573.196072 21301.473893 21112.796865 21058.557897 20925.485146 20656.236579 20414.021041 20135.847359 19752.823294 19390.103781 19108.604132 18887.465618 18689.480569 18415.080996 18031.675886 17664.314518 17427.957553 17259.561323 17069.557146 16831.746770 16581.070925 16331.420721 16085.226950 15869.176306 15680.799492 15481.226389 15232.174126 14921.778164 14595.238484 14303.280840 14010.244404 13668.884533 13358.519243 13135.325369 12978.489104 12836.778603 12652.591337 12418.706106 12174.443229 11925.196670 11639.455383 11340.346199 11104.813780 10949.521431 10814.177506 10649.374853 10440.971573 10186.150856 9883.869284 9545.851881 9206.953724 8894.051888 8592.101375 8296.465116 8052.671798 7868.442547 7685.258318 7470.343092 7275.836006 7159.000759 7064.923563 6853.961833 6446.991429 5877.708256 5231.750349 4578.936965 3958.092214 3397.223017 2917.873621 2566.048429 2452.838186 2344.396896 2147.424658 1855.909290 1642.203312 1505.748414 1397.362647 1286.283226 1200.837828 1136.580724 1095.765918 1076.323684 1064.962882 1058.079277 1050.940207 1044.021008 1037.368426 1030.879362 1024.428983 1017.901633 1011.197333 1004.229660 996.913652 989.125644 980.528633 970.526442 964.434606 2411.545056 2307.166748 2136.562888 1905.673999 1698.916087 1540.789803 1422.089182 1322.910452 1235.730186 1165.533183 1115.093993 1086.261291 1071.055857 1062.260012 1054.698176 1047.705209 1041.110694 1034.765023 1028.534804 1022.302861 1015.968897 1009.449239 1002.675927 995.595691 988.172658 980.420855 972.674142 967.307403 965.128726 2452.838186 2395.737098 2292.240970 2121.752123 1912.309561 1714.837274 1553.785390 1429.778097 1328.943263 1242.581183 1172.649138 1122.402319 1091.163305 1073.784578 1063.089716 1054.855725 1047.671184 1041.012822 1034.636468 1028.382847 1022.127757 1015.769412 1009.225672 1002.435751 995.370490 988.067986 980.740022 973.973362 968.740969 966.167874 965.476786 964.434606 956.716543 942.750128 929.364247 916.136308 902.736338 889.098133 875.218319 861.112724 846.802691 832.310848 817.659731 802.871328 787.966919 772.967041 757.891515 742.759489 727.589518 712.399650 697.207520 682.030459 666.885597 651.789971 636.760627 621.814727 606.969644 592.243056 577.653030 563.218109 548.957380 534.890548 521.037993 507.420830 494.060956 480.981094 468.204837 455.756678 443.662039 431.947300 420.639823 409.767965 399.361100 389.449628 380.064992 371.239681 363.007244 355.402294 348.460514 342.218662 336.714577 331.987182 328.076490 325.023608 322.870742 321.661205 321.439424 322.250949 324.142462 327.161795 331.357940 336.781068 343.482554 351.514998 360.932257 371.789473 384.143116 398.051022 413.572446 430.768109 449.700263 470.432754 493.031095 517.562543 544.096185 572.703031 603.456108 636.430567 671.703788 709.355500 749.467889 792.125726 837.416483 885.430456 936.260880 990.004045 1046.759399 1106.629647 1169.720841 1236.142454 1306.007470 1379.432531 1456.538323 1537.450824 1622.305368 1711.260077 1804.540065 1902.585093 2006.531523 2120.352427 2250.556281 2327.668873 965.128726 961.806344 953.656606 941.752673 929.102999 916.067345 902.724062 889.102198 875.226610 861.121559 846.810963 832.318237 817.666165 802.876807 787.971468 772.970690 757.894293 742.761423 727.590630 712.399958 697.207038 682.029196 666.883557 651.787152 636.757024 621.810330 606.964438 592.237023 577.646148 563.210352 548.948720 534.880953 521.027429 507.409261 494.048344 480.967399 468.190018 455.740690 443.644839 431.928844 420.620065 409.746858 399.338596 389.425680 380.039552 371.212701 362.978675 355.372088 348.428621 342.185035 336.679166 331.949938 328.037364 324.982551 322.827705 321.616138 321.392278 322.201674 324.091009 327.108112 331.301976 336.722772 343.421874 351.451881 360.866647 371.721315 384.072353 397.977596 413.496295 430.689170 449.618472 470.348042 492.943392 517.471775 544.002275 572.605898 603.355667 636.326729 671.596461 709.244586 749.353287 792.007331 837.294185 885.304142 936.130432 989.869341 1046.620316 1106.486058 1169.572608 1235.989417 1305.849396 1379.268939 1456.367936 1537.269736 1622.101092 1710.991987 1804.074884 1901.478822 2003.286003 2109.054399 2215.183863 2290.121919 2319.644190 965.476786 964.296114 960.038850 951.752609 940.996314 928.836344 915.973742 902.686448 889.082814 875.213615 861.111279 846.802248 832.310712 817.659690 802.871315 787.966915 772.967040 757.891515 742.759489 727.589518 712.399649 697.207520 682.030459 666.885597 651.789971 636.760627 621.814727 606.969644 592.243056 577.653030 563.218109 548.957380 534.890548 521.037993 507.420830 494.060956 480.981094 468.204837 455.756678 443.662039 431.947300 420.639823 409.767965 399.361100 389.449628 380.064992 371.239681 363.007244 355.402294 348.460514 342.218662 336.714577 331.987182 328.076490 325.023608 322.870742 321.661205 321.439424 322.250949 324.142462 327.161795 331.357940 336.781068 343.482554 351.514998 360.932257 371.789473 384.143116 398.051022 413.572446 430.768109 449.700263 470.432754 493.031095 517.562543 544.096185 572.703031 603.456108 636.430567 671.703788 709.355500 749.467889 792.125726 837.416483 885.430456 936.260880 990.004044 1046.759395 1106.629634 1169.720799 1236.142315 1306.007017 1379.431053 1456.533500 1537.435082 1622.253984 1711.092345 1803.992532 1900.796863 2000.707176 2101.021621 2194.236759 2268.116273 2305.503561 2315.228945 2327.668873 2421.304010 2591.663708 2756.204883 2920.458858 3088.893378 3262.777156 3442.626810 3628.737969 3821.353316 4020.716494 4227.092008 4440.774937 4662.098537 4891.443797 5129.254596 5376.061768 5632.517055 5899.432121 6177.812147 6468.888793 6774.290523 7096.915187 7453.219320 7772.728160 8066.255216 8520.976976 8816.942591 9287.163508 10247.260740 10755.338920 11269.496535 12189.404566 13003.080319 13666.995176 14114.531594 14596.504969 15690.205909 16793.460937 17801.084385 18695.538922 19443.945003 20122.866659 20633.485727 21390.353710 21799.487554 22303.548278 22623.872735 23259.574433 24575.377433 25556.132295 2319.644190 2360.034734 2458.681319 2603.838906 2759.359339 2921.238658 3088.957583 3262.620172 3442.397126 3628.480442 3821.081025 4020.432627 4226.796557 4440.466717 4661.775650 4891.103418 5128.892107 5375.668642 5632.075220 5898.896912 6177.056407 6467.513639 6770.947669 7086.974321 7427.022445 7750.884517 8031.590622 8455.775555 8792.656316 9225.662092 10076.110998 10676.292372 11186.469063 12047.968777 12857.534733 13539.007504 14039.435785 14576.002494 15630.991904 16704.774717 17650.325244 18552.174955 19386.175820 20139.629202 20822.665700 21456.587182 21898.896527 22300.523657 23003.222585 24034.319729 24941.019191 25294.839679 25163.077378 2315.228945 2329.802579 2381.376141 2481.857132 2613.115906 2762.678361 2922.457630 3089.508464 3262.966555 3442.685131 3628.755929 3821.358844 4020.718187 4227.092493 4440.774969 4662.098160 4891.442410 5129.250008 5376.046768 5632.468175 5899.273227 6177.296792 6467.221277 6768.894837 7079.627594 7394.726476 7711.488069 8023.976100 8391.758331 8789.237696 9299.213817 9976.047237 10617.623415 11253.409912 12029.055675 12786.038063 13444.864224 14035.851723 14716.746525 15662.828279 16651.191900 17579.344056 18465.350470 19308.194517 20081.664348 20809.224460 21552.195560 22385.074565 23155.634280 23765.405070 24207.255557 24562.906128 24868.496471 25012.150822 25048.973751 10760.202291 10783.839663 13196.063537 13296.080590 14226.999586 14224.647507 14230.597337 18964.155051 16292.751976 13927.342295 19616.546184 19880.801569 20495.590033 21823.922475 21900.388407 21335.307516 22343.987338 22580.479691 23261.507453 24256.306800 13621.137031 17345.367615 12768.694079 17716.174272 14977.206981 14551.932529 14778.916776 18260.734946 18465.834916 18318.677766 19293.440776 20949.351638 22730.358897 23429.967127 22771.402937 20738.921575 22808.226023 24825.533886 23650.528414 23834.864026 15428.089744 17325.416992 14170.498648 19527.519045 15087.163705 16958.308183 17227.405925 22637.413782 20192.757780 20160.515477 20707.681667 21222.937206 20647.093386 21429.306895 23377.289931 24592.081417 24704.780626 23750.386634 24110.492597 24387.480980 18826.405614 20259.551213 15491.054523 17195.027768 17611.094024 21587.354078 15985.346561 20225.628907 20467.322685 21413.835979 21300.957997 23806.976647 22872.387686 22508.972802 20974.993367 23996.665618 24270.184690 24497.750174 24542.451410 24079.325025 19599.056830 21559.964698 16243.471854 17323.793239 21615.176734 19521.538054 15665.180517 20747.798357 19978.702230 16293.138019 22528.374680 20758.429161 21103.987086 21979.016503 21189.058870 23647.918698 21442.568915 24352.729864 24460.316391 24298.764149 13947.105376 18352.039615 15579.221992 15318.763225 16864.034058 17536.130371 19274.862213 22029.156881 19398.826234 19289.874834 20712.046847 24390.330878 18537.486817 18848.689615 22305.619460 23235.263297 22833.528422 24770.644729 24567.168360 24663.598052 19494.121249 16486.253038 18395.991951 18208.765683 15598.864183 21117.649429 21336.095618 21169.121491 20470.226084 16893.136736 21939.409479 22072.430713 22904.272269 23482.878629 21150.720441 22230.086074 23154.090276 24115.395697 24283.225641 24487.362882 18320.600726 14980.765007 16379.102468 18273.058997 17618.249618 16155.636402 16909.889583 19445.479127 20594.683710 17918.826837 22933.869790 20031.926457 21650.002454 22794.710340 22356.963900 22962.274553 21867.759965 24701.865151 22718.167946 23947.270233 15571.056342 14571.488180 16487.637998 13921.275071 18203.136893 15797.297769 18460.529474 15645.657107 16140.228069 16787.357926 16353.214948 18704.178954 19974.181000 21143.292020 21898.454861 19449.753394 22954.058545 19897.356986 24035.602962 23673.663063 14974.950830 15820.024922 19987.188562 15765.216692 15870.746563 17379.387695 14957.439904 15431.527650 16662.214600 22169.743562 19622.786598 19208.964696 20801.164907 20322.260843 19841.066561 20846.263186 22644.454134 24022.918113 20948.623451 23959.514263 17731.161903 18197.088598 15744.556202 17572.328209 17878.380072 20256.426616 16640.094474 16487.266841 18804.716006 19309.588110 17277.765981 22422.363171 19333.782340 23080.810417 21202.656490 22977.673974 20686.147575 22685.824547 24181.643598 23208.445938 13694.375591 14090.372827 15696.805314 16983.449764 15173.113222 16711.440910 15808.953682 14304.701939 16003.638135 22384.813396 20231.723225 16458.228286 20511.001574 19023.406405 18642.676176 22932.201493 22694.402483 20894.691149 22842.867091 23969.900086 14505.818725 14090.625813 14581.935098 16795.793113 16464.751804 15166.661944 15429.945662 17126.256399 16852.405275 16533.777839 14894.882710 21310.261211 16048.409150 21154.453140 21185.990312 20477.452830 22607.745132 22152.240237 24079.360829 24449.903753 13723.146504 13464.527163 16266.617644 13817.121363 15994.907411 17678.374992 16342.614808 17013.670591 14400.266549 19448.348306 18533.316524 19206.472182 22509.891960 21018.421017 21276.759818 21868.641550 24152.429382 22420.423472 22922.592317 24699.090224 16728.199569 12862.385320 13708.895085 14745.886014 15973.187875 17774.694092 15117.354600 18132.684464 18841.724905 17184.773091 20184.701583 17829.931894 21011.008290 22414.263427 22614.600820 17434.458913 20632.357777 24516.220931 22676.266513 24950.522445 13083.896498 13618.675710 13147.975646 13456.313231 16650.225746 18959.929647 14575.677814 13793.739980 17222.918331 14553.276747 17514.076158 16509.294749 22438.968985 21984.944648 22043.241298 22781.315484 20421.883436 23015.236829 21980.806896 24585.515360 17481.283550 13442.955530 13102.861358 13367.097152 14893.655949 14503.506794 15560.162418 17531.411851 17295.854184 16587.858097 14758.052308 21065.848564 19140.724104 22737.653732 18005.270169 22632.769796 19662.371617 22024.446634 24394.234701 24648.642897 11203.068255 11905.941490 12744.947893 12998.752144 13050.626744 13935.159776 15447.186484 14298.903302 15604.914371 15264.864498 20883.865222 16597.673439 16605.999600 16319.360423 21800.254292 19488.098601 22061.273511 22292.045852 22718.245992 24373.172437 8681.459140 12666.684270 13356.674404 13273.820660 13123.430520 13362.483933 14141.618638 14444.537101 18846.955351 20420.591361 18755.234204 19489.084632 24077.812232 19061.737364 22691.079797 22654.571677 24232.431872 22752.524727 21901.253363 22610.270268 13237.293550 11476.182446 12607.686101 13062.606045 13688.786005 12903.489480 13494.680460 19094.213755 16387.281021 15198.813483 19022.836246 17383.590515 24374.527185 22032.680275 23680.655541 22263.607234 24643.859981 24552.629912 24669.472628 22304.615312 8427.200011 10975.872880 13007.851002 13198.937008 12733.818834 13903.401759 14033.032719 15036.133454 15741.119574 18195.804897 17186.738928 16679.645220 18618.394291 23236.950095 18428.442409 19799.197671 21953.200719 22661.703202 23317.352178 24457.132248 10115.964814 11736.222154 13760.195655 12756.049592 15196.263329 13598.781502 14529.918732 15206.943333 14254.874264 14442.896529 21367.660848 23103.262055 21682.462212 21909.231282 22558.375365 18175.440899 21840.763911 20637.440808 24284.941131 24235.660830 14341.541481 13700.678699 15498.610848 13457.646821 13474.455887 13562.642412 14826.198559 13979.444586 18348.631727 18196.389897 17353.259880 21496.557532 18166.765952 23086.833503 15856.583216 23184.484664 22680.320351 22418.828381 24624.912535 23959.570491 11985.682086 13366.986137 13342.671323 12932.862698 13688.874625 13261.847697 16602.075698 15033.593125 14003.995604 18140.275063 20503.371083 19588.740694 20790.547656 22072.075989 23776.078174 24205.367050 23184.036862 23328.218398 23106.437450 24794.173064 15049.004629 13803.049742 12574.770584 13164.922638 14947.404776 13749.870193 13815.768911 16482.213284 13879.636980 15057.920005 15276.932002 20305.003162 15602.844109 16598.280922 21768.558227 23515.257786 24638.945289 22779.096364 22746.126434 23557.534567 13571.780673 12887.694235 13577.546201 13564.909875 14014.342670 13405.618605 13573.126330 14852.188656 14744.465400 17893.433161 16733.322612 17728.772248 21866.401910 19918.813650 16099.406963 22338.505431 22752.195156 22707.809379 23763.124608 24793.313684 7631.493783 12195.469270 14301.176935 13426.415536 15221.964238 15823.452706 13350.998426 13677.925248 14286.161323 17331.750791 15468.055869 18115.641205 17511.085325 19731.146916 22860.066049 22467.808718 23446.852803 22486.393333 23405.966827 12069.915291 12401.304933 12738.743886 12363.762444 13858.196017 13923.502065 13692.694855 15715.196209 19189.920707 15183.333145 16881.707627 19140.373119 22299.653065 16378.449826 21988.559485 24182.521930 23483.358401 21787.019955 23246.294285 12323.188022 12616.172637 13348.493623 13587.186862 13835.593807 14378.241418 13508.482245 14296.448841 15671.988261 17209.442207 18719.286002 16725.404813 20851.240425 15893.031703 22122.724202 23910.373587 22482.432683 22762.411464 22886.127727 11932.452907 12360.755857 12939.177570 12617.129218 13886.744761 13636.220264 16752.815026 16340.780672 15894.510011 19407.383590 17932.148684 16586.948357 18417.467035 18765.929093 19699.584361 19294.187565 21299.326019 21909.730899 22746.981969 11681.311099 12462.027670 13757.875251 13336.108769 13651.545489 12148.245095 14219.799105 14457.801408 13718.443238 14248.163130 16864.114821 13622.691878 19929.900581 18139.309736 17961.824593 22144.604031 22003.313903 22554.165148 11317.464981 12098.342597 12550.629552 12916.351219 13836.260362 13361.517071 15034.701827 14075.390942 18771.028549 15751.250731 16368.268059 20160.727539 19113.661636 21525.745715 21431.893449 21995.458716 21614.001689 22394.958839 8462.844349 12105.048592 12035.935041 14200.998111 13142.035612 16640.170876 12610.970941 16144.287166 14898.822553 17112.931408 20021.803678 20854.998735 18159.994455 21853.059511 17530.572264 22270.239916 23575.441554 8919.977336 11837.999343 12447.708223 12931.686997 13189.186707 13753.406236 19246.027588 13330.403536 13636.697114 17594.895564 15470.611062 19950.060277 22910.380513 20770.065671 18657.097248 21037.216554 21718.881167 11617.593693 11656.960413 13444.866900 11859.168013 19741.549001 20955.231562 15954.942861 16952.371180 15603.567331 22233.497108 15765.678596 21912.108873 20500.612250 22343.214409 21073.859318 20449.185241 20999.712626 21001.064703 13793.307719 12782.406992 19211.252491 12729.550246 12973.967627 12623.798228 14068.792372 16303.979663 19477.610481 19979.331847 20878.583633 19551.846891 20800.740179 20750.483003 21223.393378 20628.562857 12747.731137 12081.042178 14666.629014 12925.461677 13052.083607 18336.938894 14781.628162 18745.211627 19650.244146 13877.319207 20745.500538 20580.145572 21880.932271 20364.906629 15672.881196 19967.329064 12060.911905 10940.334323 11361.276773 15182.574077 21768.828060 19698.866596 19007.016955 16365.648839 18272.980587 15423.244828 17127.010675 20997.438300 20285.315996 21707.136380 22244.209829 20386.789143 12984.038721 10745.352527 12115.654966 18014.007998 13835.993565 14371.144914 20053.695763 13628.439456 13951.474369 19953.759658 18854.579730 20940.774134 21485.235047 21856.958684 20290.079259 10788.055766 11152.202194 12670.563324 11857.912234 15357.409642 12927.229186 14635.746807 17570.373000 21115.043236 20536.132494 19334.626309 21822.255757 20321.715614 16828.179015 20006.410814 12849.296360 8085.561517 10582.018977 12107.077005 14294.731158 16022.786820 12184.138158 17365.987418 20864.000128 16375.022314 21739.689866 16555.637299 21295.138655 19984.045711 19586.562841 8801.298297 11765.208122 10214.021448 11970.818262 14517.968874 14219.332603 15522.804041 16644.727177 15440.573011 16200.701557 21368.406446 21815.353556 20660.320363 19145.525660 14211.153612 11173.066936 13233.774329 19358.327531 17642.609973 15034.416174 11824.450479 16439.791185 17194.737707 21071.569675 20484.311947 15937.353006 20067.797639 18938.048832 12559.247965 8466.176099 13124.271423 13584.524967 18629.510613 12456.283662 20501.543151 16629.885660 14468.326037 14397.647420 19890.839153 19501.543273 17100.601911 18873.453389 9906.741370 17378.400035 11162.627787 15375.757879 17526.091959 17180.051455 20607.246723 17060.283596 19067.343295 18571.120140 20944.079947 18697.013953 18514.693654 17883.973671 13477.260735 13293.617646 15884.041590 11358.588978 17570.234128 11835.195348 18983.219515 20136.953821 20687.035430 20742.577006 20627.520661 18230.264709 13793.162540 15183.435817 19780.097587 14774.600948 17537.536240 19765.836732 18311.800445 11790.094274 20389.661561 17941.485500 20503.397075 17688.133714 17990.298413 15320.945760 12724.667209 13211.157112 18221.533908 11760.048534 18160.265146 13413.732004 17611.801249 17810.675792 18750.364045 17013.045956 17286.123190 13080.652274 13027.570250 13905.731945 11856.720083 9343.486573 14061.081881 15788.202212 20573.196073 15112.105467 19872.747075 17633.808727 17458.253617 12956.874634 12249.884299 11707.105454 18565.987763 11137.203683 18964.130284 19189.416557 16933.242513 18941.591637 19369.873227 18292.458560 17457.065085 17458.099295 7600.633915 16830.004844 15894.466139 18524.021098 14947.860908 14263.396959 15691.125558 21750.474805 19798.891788 18035.712278 20376.137966 16329.217401 8460.553883 13059.669764 14554.535341 19141.273415 18972.175025 17967.363081 8440.942165 20734.430016 13954.203462 16792.865277 10461.138668 12573.319377 12167.749832 13006.854138 8312.106403 18516.334250 17005.829673 19294.778571 16472.113226 18054.660742 16576.166278 12239.850379 17255.092222 13586.765529 15829.262387 16542.695532 12044.377668 16072.805326 18096.708903 17582.284064 16234.564495 14041.838669 14550.291831 12102.907476 17474.135674 17717.692750 17196.183147 16165.031271 20572.551094 20530.825460 17880.294141 1185.038938 8874.445425 7919.302193 17522.811340 14205.773407 17886.879326 14950.266607 20532.226224 18782.405720 15697.140055 6382.775086 15877.226309 15285.414003 14257.720287 18180.377559 16989.791722 18232.959302 18534.202544 15350.866205 10992.318352 10800.915969 15530.185924 12807.429669 15241.636586 19296.198238 16176.852976 13562.315144 15250.940108 11236.052685 9564.675418 15872.883205 16426.039911 19129.087767 18770.829637 19905.255311 18220.101366 15158.664675 12481.217393 15415.517138 14876.025526 16194.339235 15050.951852 16558.877362 16103.885872 20602.970114 7225.932987 11552.978499 8938.322927 14877.974874 18623.062993 16556.371827 12966.096147 16330.795690 4429.645460 15461.362391 14529.832795 16277.054655 14149.895215 14468.552171 18749.045845 14130.099840 11277.645892 8585.191789 14844.243509 15403.619826 16066.320270 17855.925181 14568.613577 11493.446345 13309.878702 12669.025237 12414.378622 18530.235574 15632.710267 13274.831701 12537.568538 11681.618744 18219.096747 7590.951595 15956.683453 17050.800795 13272.025935 13272.991683 8830.416539 15085.478452 16713.811744 14031.175904 13036.596951 17036.262589 1098.882804 13879.806585 16128.056614 18745.285687 14481.569687 18582.894232 11859.322807 16869.819169 14021.119378 13979.994534 13815.011061 13331.330203 1499.595247 14885.130641 14280.537653 18672.871865 12681.502292 10822.542870 15782.746340 14695.672780 14519.704305 18043.731668 8253.077806 13105.344364 13337.967782 8828.867756 12279.953966 12094.854058 11579.477074 12849.488212 14156.957780 11403.049075 7689.068969 12236.185145 14165.790803 1618.573964 12942.628595 11290.453429 10970.194539 13319.772872 14085.447121 15289.819548 10959.657166 13908.167300 8015.865959 10973.033490 12255.963592 13589.101845 10915.684970 12035.217266 17063.579813 8389.980764 9202.024344 14365.221707 9815.850703 14626.909944 9016.346147 8960.983746 12062.787233 15161.314133 13594.698401 14304.613404 13469.983506 13900.180161 13691.490336 14451.163788 12266.730902 15429.618214 7890.603944 14583.366400 8812.854090 8837.700669 13796.034730 11438.192009 13789.977862 13391.996825 13396.446579 13714.477538 14109.802313 14078.524571 15001.813079 13436.166619 17829.507609 15346.168017 13859.697775 13709.188133 14368.003146 14381.451778 14319.221184 11138.219874 13934.083430 15101.643215 16130.936066 13711.218202 17819.166131 18549.125740 15174.833406 13886.423135 14028.168939 11837.467967 13982.921587 14194.559530 13729.987269 12962.435055 12249.444801 10434.135843 12992.182945 14021.286969 16731.168358 12638.598530 13783.346701 17468.934996 18402.771284 15768.946143 13663.232084 13419.944858 14703.171514 15436.106890 12735.832502 13788.286561 14672.383683 13925.778629 14164.117881 14267.846537 14818.574606 16334.157424 15619.971480 13721.962714 13550.265357 13692.524185 16237.950356 14615.706334 20341.099876 13578.006756 14118.819833 14089.989165 13925.324096 13778.550510 13898.171960 14642.413726 13775.582254 15928.208431 14519.856099 14415.942273 14303.162179 15805.249689 15840.935528 13600.380790 13738.867196 13594.448154 13575.640426 13578.131736 13688.149320 13729.660865 13636.931315 15464.667612 14639.663849 14877.732692 14913.539681 14460.578738 14600.327078 15127.081689 17518.117647 12548.596684 13699.234672 13322.511612 14895.258753 13979.201475 13651.925959 14335.761447 14415.243142 16658.536140 14288.114401 13890.548342 14113.010850 14797.680719 14481.900899 17889.935213 13539.637939 13200.411797 13785.847525 13869.341206 13419.341346 13595.648601 14962.389862 13455.891146 14226.583933 17374.200386 14075.130645 14159.767943 15319.897807 15071.603916 14842.561058 13819.951917 13708.209100 13589.727557 13458.715472 14429.291854 15095.731077 13771.050131 14490.385451 13723.181520 13604.832116 14750.071710 15275.530415 15526.020902 18418.248172 17333.295648 14681.434704 13670.158072 13098.126799 13733.335481 13433.489101 13320.345447 13719.613137 14242.217444 15847.675783 17116.771839 14630.849996 13738.279363 14517.724316 14162.020357 16415.313851 13577.200947 13702.019125 14196.522936 13671.803674 13266.050311 14320.776918 13334.578675 15697.635830 13689.358272 13001.267506 13837.861728 15154.064033 14906.046347 13990.093132 14260.940568 13471.534065 13366.821802 13443.644466 13827.260957 13526.165700 13080.525967 13094.151632 13198.066677 12676.120819 12823.115653 13397.864215 13941.760205 13130.589850 12969.132136 14005.382483 13369.366462 13298.766429 12818.528961 12856.761455 12787.562460 13362.747065 13546.043709 11651.256009 12080.617399 3767.690100 11478.196418 13085.828229 11937.791881 14868.684912 12823.676100
</DataArray>
<DataArray type="Float64" Name="Velocity" NumberOfComponents="3" format="ascii">