<VTKFile type="PolyData">
<PolyData>
<Piece NumberOfPoints="2186" NumberOfVerts="2186" NumberOfLines="0" NumberOfStrips="0" NumberOfPolys="0">
<PointData>
<DataArray type="Float64" Name="Pressure" format="ascii">
 37244.702397 35846.229622 36820.876266 39606.060518 40949.193971 39979.731320 38699.818044 37903.888530 38243.120584 38054.107050 39895.657270 40024.240684 39323.843733 38462.853244 38129.716833 37925.871561 38000.895047 39623.434112 42021.076052 41045.082397 38281.431346 32249.618286 31462.387978 34289.777995 35369.000642 34842.337198 40088.221636 39058.959468 38686.108484 40155.116387 42824.478563 44838.339508 45261.650516 44820.472644 43954.618291 43217.989615 43628.336619 44306.852032 44591.768304 44495.788277 43924.471968 43488.510474 42780.212522 41807.727965 41411.190650 41939.664792 42199.811786 40652.906164 37469.576513 35541.833972 35210.357699 34627.993563 34231.921758 34037.908064 40920.369193 40715.492477 40450.264001 40800.101074 42254.040568 44391.444936 46165.459297 46902.343187 46727.094991 46146.283210 45774.182243 46084.671567 46529.720037 46622.844129 46384.892308 45831.743001 45050.608810 44229.862449 43459.115241 42879.641415 42616.947219 42392.135962 41339.932423 39508.695658 37772.804950 36157.877187 34633.605683 33724.343448 33301.692019 34842.337198 33566.475431 30747.810154 28732.520145 28746.201260 29176.637079 28646.788899 27599.732720 26590.806759 25951.576726 26211.974833 26419.282208 25841.609171 25238.400763 25165.552802 24950.278932 25069.863562 24414.970694 22664.918560 21331.727109 20853.795864 21015.534275 20618.410933 19727.123621 18885.521066 18400.079772 18157.008600 17762.448670 17462.298590 17029.094360 16155.703720 15142.537795 14525.380684 14351.175003 13956.992993 13286.920557 12678.301022 12186.617583 11768.177395 11704.933785 11672.267504 11253.212404 10767.715157 10334.924166 9743.865472 9429.991895 9354.367445 9074.387439 8608.782680 8051.180262 7362.802541 6511.940943 5414.148945 4559.686010 4107.096581 3956.471011 3806.942685 3441.368161 3030.362565 2700.712306 2461.304885 2243.737991 2034.730402 1783.948374 1469.155101 1201.145665 977.113818 786.993580 625.820506 490.429082 378.336830 287.100954 214.149294 156.852018 112.636465 79.071161 53.911044 35.102441 20.692515 9.162046 4.300756 34037.908064 33010.686574 30416.706067 28617.028713 28021.535413 27853.424076 27130.380881 25947.684421 25225.075031 24872.489855 24685.284475 24406.324220 23782.768972 23094.522124 22838.318492 23068.134606 23034.698308 22193.599919 21030.537025 20292.459180 20136.823131 20152.558546 19812.799615 19286.884302 18901.917302 18631.438666 18247.276871 17917.147620 17621.944404 17133.192082 16398.898608 15698.400872 15184.208681 14709.120384 14226.580683 13801.895863 13294.958018 12746.791888 12397.653669 12222.782260 11944.736681 11450.375860 10850.389137 10381.401631 9885.261573 9515.954834 9341.689432 9104.775614 8617.971974 7993.892860 7293.972081 6484.351907 5637.037498 4926.512522 4490.697814 4203.231694 3921.946601 3538.234961 3082.519013 2698.723613 2406.218291 2147.598592 1895.870622 1631.813475 1367.863914 1127.390360 917.209990 736.318704 582.483563 453.601944 347.492889 261.715314 193.634807 140.578216 99.961202 69.369564 46.606027 29.716751 16.978064 7.672224 4.345095 33301.692019 32504.449690 30459.024338 28643.896584 27556.807270 26829.571875 26010.261227 25007.677798 24105.987273 23469.542186 23007.503212 22629.818074 22196.932827 21768.069985 21513.757221 21535.393261 21423.754513 20939.813733 20357.627472 19911.516420 19672.635150 19493.744900 19233.356100 18907.929525 18640.971998 18446.693454 18222.493594 17959.061832 17636.989352 17204.995102 16647.432980 16044.896330 15482.510074 14968.493295 14528.976488 14166.334843 13791.027520 13364.274016 12973.663069 12640.365680 12267.213554 11789.278865 11217.932888 10662.442069 10172.241319 9746.890584 9413.275992 9101.905117 8694.522853 8172.934771 7579.594898 6910.066607 6192.825968 5511.357989 4928.786880 4454.636494 4047.808142 3653.543302 3250.426189 2871.625284 2545.908895 2261.490979 1996.697782 1738.020328 1483.949686 1243.145770 1024.472012 831.759121 665.250757 523.853697 405.932192 309.399537 231.821455 170.602110 123.153008 87.007569 59.893219 39.781679 24.943917 13.993248 6.660115 4.440047 4.300756 2.801239 1.495455 0.815625 0.441871 0.234772 0.121851 0.061688 0.030442 0.014639 0.006859 0.003130 0.001391 0.000602 0.000253 0.000104 0.000041 0.000016 0.000006 0.000002 0.000001 0.000000 0.000000 0.000000 0.000000 0.000000 4.345095 3.523963 2.512757 1.510155 0.867045 0.485921 0.265939 0.142131 0.074164 0.037776 0.018779 0.009110 0.004312 0.001991 0.000896 0.000394 0.000169 0.000070 0.000029 0.000011 0.000004 0.000002 0.000001 0.000000 0.000000 0.000000 0.000000 0.000000 0.000000 4.440047 3.896672 3.220848 2.322913 1.466097 0.865073 0.489505 0.268792 0.143782 0.075021 0.038195 0.018975 0.009197 0.004349 0.002006 0.000902 0.000396 0.000169 0.000071 0.000029 0.000011 0.000004 0.000002 0.000001 0.000000 0.000000 0.000000 0.000000 0.000000 0.000000 -0.000000 0.000000 0.000000 0.000000 -0.000000 -0.000000 0.000000 0.000000 0.000000 -0.000000 -0.000000 0.000000 0.000000 0.000000 -0.000000 0.000000 0.000000 0.000000 0.000000 -0.000000 -0.000000 -0.000000 0.000000 -0.000000 0.000000 -0.000000 -0.000000 0.000000 -0.000000 0.000000 -0.000000 -0.000000 0.000000 -0.000000 -0.000000 -0.000000 -0.000000 -0.000000 -0.000000 -0.000000 -0.000000 -0.000000 -0.000000 -0.000000 -0.000000 -0.000000 -0.000000 -0.000000 -0.000000 -0.000000 -0.000000 -0.000000 -0.000000 -0.000000 -0.000000 -0.000000 -0.000000 -0.000000 -0.000000 0.000000 0.000000 -0.000000 -0.000000 -0.000000 -0.000000 0.000000 -0.000000 0.000000 0.000000 -0.000000 -0.000000 -0.000000 -0.000000 -0.000000 -0.000000 -0.000000 -0.000000 -0.000001 -0.000002 -0.000005 -0.000014 -0.000034 -0.000084 -0.000198 -0.000456 -0.001026 -0.002253 -0.004827 -0.010097 -0.020620 -0.041130 -0.080156 -0.152678 -0.284406 -0.518574 -0.926861 -1.627900 -2.822486 -4.873357 -8.552317 -15.535510 -21.113723 0.000000 0.000000 0.000000 -0.000000 -0.000000 -0.000000 0.000000 0.000000 -0.000000 -0.000000 0.000000 0.000000 0.000000 0.000000 -0.000000 0.000000 0.000000 0.000000 0.000000 -0.000000 -0.000000 -0.000000 -0.000000 -0.000000 -0.000000 -0.000000 -0.000000 -0.000000 0.000000 -0.000000 -0.000000 -0.000000 -0.000000 0.000000 -0.000000 -0.000000 0.000000 -0.000000 -0.000000 -0.000000 0.000000 0.000000 -0.000000 -0.000000 -0.000000 -0.000000 -0.000000 -0.000000 -0.000000 -0.000000 -0.000000 -0.000000 -0.000000 -0.000000 0.000000 -0.000000 -0.000000 -0.000000 -0.000000 0.000000 -0.000000 -0.000000 -0.000000 -0.000000 -0.000000 -0.000000 -0.000000 -0.000000 -0.000000 -0.000000 -0.000000 -0.000000 -0.000000 -0.000000 -0.000000 -0.000000 -0.000000 -0.000001 -0.000002 -0.000005 -0.000013 -0.000033 -0.000081 -0.000192 -0.000443 -0.000999 -0.002198 -0.004715 -0.009876 -0.020197 -0.040336 -0.078692 -0.150012 -0.279545 -0.509468 -0.908639 -1.587063 -2.716723 -4.558354 -7.463777 -11.638188 -15.003432 -15.858324 -0.000000 0.000000 -0.000000 -0.000000 -0.000000 -0.000000 -0.000000 0.000000 0.000000 0.000000 0.000000 0.000000 0.000000 0.000000 0.000000 -0.000000 0.000000 0.000000 0.000000 0.000000 -0.000000 -0.000000 -0.000000 0.000000 0.000000 0.000000 0.000000 -0.000000 0.000000 0.000000 0.000000 0.000000 -0.000000 0.000000 0.000000 0.000000 -0.000000 0.000000 0.000000 0.000000 0.000000 0.000000 -0.000000 0.000000 0.000000 -0.000000 -0.000000 -0.000000 0.000000 0.000000 -0.000000 -0.000000 -0.000000 -0.000000 -0.000000 -0.000000 -0.000000 -0.000000 0.000000 0.000000 0.000000 -0.000000 0.000000 -0.000000 -0.000000 -0.000000 -0.000000 0.000000 0.000000 -0.000000 -0.000000 -0.000000 -0.000000 -0.000000 -0.000000 -0.000000 -0.000000 -0.000000 -0.000001 -0.000002 -0.000005 -0.000014 -0.000034 -0.000084 -0.000198 -0.000456 -0.001026 -0.002253 -0.004827 -0.010095 -0.020614 -0.041108 -0.080078 -0.152403 -0.283441 -0.515185 -0.914989 -1.586355 -2.677259 -4.367131 -6.773550 -9.660582 -12.227842 -13.210903 -13.187187 -21.113723 -39.155376 -79.231386 -130.444793 -198.666461 -290.177427 -409.460897 -558.171770 -734.664396 -936.588391 -1167.398277 -1442.322408 -1767.049208 -1891.274835 -1676.914361 -2235.607662 -1937.679035 -2308.095390 -1488.315470 -874.934438 795.018509 2769.003024 3832.631266 4391.496188 5713.034589 7825.728173 10461.794886 13052.305809 13932.009241 14166.927778 14001.966709 15329.439432 17742.418092 18957.974328 19647.250716 19747.439441 20986.067010 23842.997263 26335.537475 28798.192007 30225.167465 30532.713466 31029.308260 32150.141707 32977.069423 34181.412663 35712.510894 37266.543823 37314.800546 36598.512583 37244.702397 -15.858324 -23.875077 -44.646132 -80.687399 -130.121395 -197.719275 -288.913061 -408.071985 -556.808500 -733.214782 -934.096300 -1161.184941 -1426.491310 -1740.285145 -2001.165941 -1894.387991 -1708.223763 -1905.169049 -2040.449157 -1437.894197 -87.433333 1709.147164 3503.088111 5382.837696 6726.232407 7767.587322 9659.654294 12514.160264 15542.730083 17734.806201 18831.501137 19647.917551 21088.956064 23041.258206 24718.814632 25697.593811 26288.832935 26978.443745 28276.764408 30236.465107 32659.820219 34595.356282 35720.043345 36429.979317 36911.235165 37458.287561 38376.167167 39486.274238 40537.289583 40491.289237 39372.418145 39186.912768 40088.221636 -13.187187 -16.127592 -26.524821 -48.549321 -82.623840 -131.393692 -198.945150 -290.265201 -409.480233 -558.056759 -733.991542 -933.882699 -1158.490624 -1416.381642 -1711.729883 -1998.004255 -2114.806910 -1965.946893 -1737.860279 -1386.582708 -709.912414 616.933464 2477.154913 4536.780006 6387.929474 7821.661862 9166.696318 11133.675195 13817.303619 16702.598801 19200.335759 21082.160120 22743.671061 24571.359351 26509.431673 28301.043903 29554.583615 30325.491529 30901.179437 31816.601214 33389.184777 35383.911329 37274.108403 38724.620609 39666.275511 40218.305566 40673.222933 41051.111598 41257.221191 41278.489255 40945.494437 40421.457437 40313.440470 40671.995096 40920.369193 10380.333647 12156.990541 13453.789986 15333.507883 16162.998805 16603.123978 18382.808146 23167.702530 23848.877723 26178.176031 27328.264041 27823.760857 28984.276616 30448.679643 30976.926765 32351.852587 33634.694022 33893.497457 33477.693959 33961.470771 13339.555581 13330.251893 15916.882638 17534.231299 18108.299025 20011.238137 19975.806116 24750.599894 24429.588034 26082.392827 26586.965930 27907.427855 31799.562461 32199.391468 34289.389868 33290.384318 33556.365976 32500.293374 33453.000597 33713.548677 14775.207751 15217.514288 15274.934986 19040.592491 20896.204906 22817.346506 22768.995263 26645.214550 26699.736679 25924.293908 27181.503683 28794.065619 30097.762686 33051.747899 35163.473199 33655.972526 33839.113590 32090.642147 35122.793519 36327.744956 14447.113924 17060.973652 15799.698965 19937.928910 20994.487582 23402.960342 24173.275561 26950.563723 27255.439441 28391.178792 28710.751663 29860.093026 30540.009085 33972.879985 36191.150330 34808.263670 34739.961897 35107.882067 35889.605278 37283.073471 13521.441794 14078.363095 16574.425078 17612.022816 20668.270995 22660.666053 25522.324653 25239.749217 28971.604659 28549.763313 28927.353853 28852.793473 31172.510745 34288.989934 34307.250463 35356.279916 35290.895316 32868.997498 33072.371526 35577.841938 12680.444820 15268.563520 15366.264044 19152.379925 18636.826742 23269.090096 22813.864830 26665.323217 28083.876430 28526.837134 28299.629000 29375.240217 29759.286428 31315.927969 33287.782724 33152.898597 31923.622179 32397.359696 32958.197463 33079.768388 14174.106654 14513.203032 17074.808344 18233.008275 21555.095967 20961.246636 25268.092510 26106.747527 27408.324308 27993.525581 28914.536217 29336.692765 30270.251427 31138.834438 30513.720697 32648.838793 32768.013646 32460.234028 34258.975916 31964.296419 13624.702449 15209.292322 17099.304915 19053.364915 19730.589175 23286.030347 24151.138747 26231.308010 26207.375912 27194.108593 28997.634579 29088.846531 30254.274120 31137.882109 31835.958107 31832.993493 32670.398060 33106.476557 33423.308889 34320.868986 13868.074366 15008.951761 16296.903412 18071.371077 20352.384125 21646.888207 22964.425899 24687.841270 25484.087468 27175.013949 27343.465305 28840.579531 29921.220427 30979.296265 31559.667472 32185.208559 32095.573069 32629.123354 34001.982136 35056.609371 12903.264756 14453.566196 16406.095709 17610.544856 18564.129995 20663.078527 22633.217641 23307.457383 25472.304493 25648.069903 28843.491876 28548.663627 29870.266018 30930.286373 31651.861893 31899.437760 31964.935456 32754.199759 32930.122578 35742.385451 15462.893084 13799.190787 14924.117109 16980.091109 18227.009876 19857.381239 20880.194978 22807.698295 23088.516763 26100.895012 26721.669551 28383.901105 29242.533974 30726.406493 30963.844430 32491.006589 32368.328464 32501.341735 35158.387243 32644.007805 14537.855157 15802.032027 16511.635778 16223.532333 17270.765384 19204.566307 20644.242168 21182.823558 23722.707776 24168.087966 26084.994262 27282.416180 28841.392176 28562.154005 31204.710024 31815.733543 32283.748879 31844.928111 32008.198677 34016.301141 16492.915663 15752.726019 15901.485728 16966.128694 16974.300509 18013.433252 20091.492677 21641.456241 22368.196833 24271.628858 25221.829229 26667.278040 28043.844868 29299.550071 30106.791340 31797.174853 32138.756239 32289.569033 33109.213335 34407.735863 18466.357275 19201.454284 17244.025371 16548.786759 17264.990008 18237.874946 19005.894456 21328.958517 22229.377078 23349.264452 24600.243320 25748.636663 26485.510843 29443.635139 30302.261803 31373.943448 32841.530774 32115.952668 33028.176847 33383.271304 4253.473189 19873.944651 19027.983915 17574.348590 17049.037636 18576.445665 19902.790359 19988.865553 22758.061850 23306.142492 24934.246020 25045.086630 27476.492219 29011.871177 29470.193268 32149.932195 31701.202997 33366.941719 33089.453630 33260.762080 -299.828249 20509.783965 18659.453468 18390.248139 16736.637418 18550.281936 19469.539358 20974.396349 21425.446633 24281.477489 24573.899412 26361.416462 26851.115875 27425.460631 30673.242258 31979.451328 33631.639076 34532.886009 35024.820066 34957.858194 1843.428850 23042.309223 18428.579031 17579.776431 17523.555994 17167.209116 19446.629329 20725.197196 22302.045085 22534.228379 24830.602462 25898.851852 26797.170321 29096.725493 29338.414415 32102.631468 34817.870728 35930.650607 41899.319454 37222.115456 1037.536376 21725.402992 17006.057125 16843.628039 16981.674884 17213.657438 19057.741085 20900.210433 21377.489452 23756.837706 24364.432734 25362.863657 27355.938291 27402.908133 30443.724800 30771.796096 32794.870857 37023.866900 39798.997031 42148.185388 536.867295 22327.974533 16129.281480 15857.626225 16000.468257 17314.084971 19100.184898 19864.447632 22230.446888 23182.846225 24428.283869 25508.517081 26740.790330 28760.965669 29071.723312 30788.703701 32926.875157 38122.721319 33330.767190 39906.741820 4092.484686 20472.733555 14280.518335 14852.763796 15731.939962 17168.340328 18454.807267 20224.787954 21491.084457 23347.195891 24745.399496 26332.544851 27120.529813 28872.322070 29713.363474 30496.107770 31684.832877 35675.039383 40794.207674 31150.054018 9007.519435 19302.084281 13836.117766 14390.822510 15572.877512 16856.126037 18294.801546 20226.889486 22193.150989 23181.936694 24937.350650 26767.435238 28049.146465 28552.207216 30585.447575 31479.924156 31778.964973 30554.431041 31638.047305 31850.063138 14093.318572 15638.944599 12647.141866 13243.628156 15488.092203 16605.966949 18246.926080 19887.045378 22075.815274 23299.346439 25667.423564 26405.189094 28784.070857 29864.984202 31338.508830 32591.181212 33172.444329 33732.344002 29075.470336 29620.456562 12650.124945 13867.447608 11798.565253 12749.697042 15096.539828 16513.617903 17922.917375 19820.873237 21307.257665 24027.869839 25464.775138 27726.884939 28828.079243 31726.234745 31656.119117 33308.109204 33392.250131 32441.671681 34643.525332 34297.514998 12425.792297 11269.530298 10921.211285 12652.208755 14839.984763 16210.771740 17966.093963 19550.323563 21635.074945 23695.529035 25393.857361 27036.793484 29719.821140 29889.629914 33764.095525 34230.170783 34806.525713 34487.464601 34899.741088 35005.603598 11169.009048 9707.187761 10171.213570 12685.116920 14504.606604 16600.019779 17826.247256 19763.785029 21916.177683 22479.857412 25182.419602 27884.855835 28099.588091 31411.135033 32846.024976 33737.613916 33665.323461 34637.512867 33620.286154 34410.636485 8938.936796 8330.478622 9449.951646 11776.258348 14354.321725 16228.529075 18023.940365 19848.745030 20675.209926 23213.323120 24539.490728 26519.043748 29145.165034 30430.998576 32123.458129 33435.411161 32960.235880 31003.517950 29982.115994 33345.694858 7374.781999 7444.530583 8458.757955 11177.149878 13584.233581 15646.214051 18292.457437 19158.344093 21256.009913 22554.596273 24718.346941 25740.504605 28357.081090 29728.124649 31133.926556 31798.220788 32298.331707 30669.067623 29870.080987 5715.166940 6458.381770 7927.961826 10526.164431 12681.494615 15655.332624 16915.201664 19348.266058 20851.102068 22628.113414 23796.444785 26624.548037 26411.267597 29105.656243 30637.624277 30887.535137 30730.547510 30233.429193 29204.976539 4716.696578 5973.546544 7989.486207 10065.992499 12361.752622 14603.141421 17146.912417 18412.940355 20700.783642 22144.353724 24091.403451 24860.244708 27360.050107 28593.009725 30018.103826 30330.333983 29475.124925 29854.857129 29516.657389 4350.751370 5425.473721 7138.968369 9057.765957 11763.739019 13508.384009 15759.922456 18288.739447 19558.169725 22141.623543 23149.673410 25122.426842 26793.427807 28372.956603 29143.937865 29785.235228 29176.648537 28436.442849 29055.008446 3708.844114 4826.664458 6148.233320 8565.407242 10901.666473 12815.269829 15167.059298 17104.897650 20024.008337 21303.396247 22959.375924 24873.091541 25773.040698 27431.624614 28283.004398 27142.004766 27449.720737 28453.096714 3167.770094 4264.231791 5955.334952 7875.222318 9968.040317 12494.796765 14739.069658 16902.940375 18489.694909 20545.538714 23257.040869 23939.673920 26757.171566 27065.975699 27440.461928 26540.285620 26405.956660 27298.870827 3108.498931 4027.132326 5470.590278 7402.607449 9974.141496 11958.183892 14424.822259 16005.567671 17980.243398 20331.757994 21656.411518 25214.763879 26009.048450 26943.175163 26742.554469 26564.568735 26031.665922 2702.803538 3965.422112 5204.609497 7451.144049 9454.910771 11554.299095 13433.931145 15435.933410 17610.402621 19610.393116 22244.879266 23374.169823 25828.619046 26396.583382 26627.885249 26291.852107 25997.104959 2549.090025 3611.886844 5041.022545 6906.564085 9230.961790 11255.067314 13003.722175 15276.432139 17139.214575 18987.825274 21484.444713 23785.384147 24849.219587 26081.860711 26984.807083 26885.016653 26778.809912 26180.516916 2397.826689 3440.536979 5278.256968 6973.144732 8731.390980 10901.256166 13076.330357 14750.789259 16703.136383 19099.824092 20630.903244 23242.830312 25122.402998 25401.980715 26388.025699 26613.283620 2246.023202 3309.006841 4521.902389 7049.156131 8957.068453 11003.070803 13168.715136 14521.842182 16802.743345 18129.112299 21009.190967 22560.833042 23938.656678 25343.474119 26196.046755 25946.391886 2192.080421 3384.483497 4590.009858 6239.857404 8612.383930 10571.946067 12621.304824 15387.358160 16540.321601 19270.765804 20190.177267 22047.476160 23976.659760 25795.311473 26137.770936 25808.050729 1965.268443 2981.559029 4590.438298 6065.950922 8506.866916 10877.960172 13016.286520 14339.811373 16829.415364 18534.146502 20347.823217 22349.994823 23194.547027 24543.531510 26123.539467 2223.919096 2868.106272 4289.161287 6310.385739 8575.179902 10495.245400 12470.226874 14948.982225 16632.220363 18244.623471 20750.825341 21212.357914 23015.033709 23887.585068 25246.918008 2212.248404 3102.391717 4521.801136 6548.271433 8221.751693 10604.505487 12813.929368 14269.693012 16325.369211 18403.432678 19473.173423 21167.126569 23115.220429 22502.993737 24286.289654 2265.243436 3219.545551 4714.993386 6299.138119 8198.034182 10265.531323 12030.936816 14326.849626 16722.034478 17723.542220 19900.686427 20905.076908 21471.913982 22016.382557 2455.070592 3138.565216 4266.382966 6180.311047 8227.293853 10155.232250 11545.052141 14711.532742 15849.870618 18478.641010 19534.357381 20486.719064 20898.619026 21332.476701 2246.615124 3181.434558 4513.812880 6318.891441 8213.396490 9892.032603 11983.532786 13595.036193 16380.404646 18230.183734 18961.580667 19288.089630 20904.511857 21161.774671 2374.725442 3113.822242 4678.737769 6263.946377 8043.009879 9703.487465 11757.511272 14852.222153 16213.387804 17245.209738 17804.811665 20019.071030 21076.342094 2206.926448 3082.612561 4591.923520 6337.529425 8145.482700 10082.486927 11610.291489 13943.301575 16080.293685 17063.536900 19152.270715 19159.838557 20175.329533 2280.999619 3126.389616 4361.951147 6495.453251 8690.284902 9767.912729 12142.954638 13755.824639 14901.632134 17273.687418 18531.056004 18523.445538 19438.363059 2326.127153 3394.648432 4433.161419 6215.782006 7936.595645 9960.874226 12078.675415 13314.991510 15646.071905 16373.528066 17458.041321 18229.669149 2345.900374 3325.331850 4655.880812 6264.593373 8396.579446 9886.925269 11942.712896 14467.665267 15097.870476 17002.655247 16995.990734 17728.313070 2463.226246 3087.412351 4617.374340 6381.748510 8285.604842 9607.168071 11789.293904 12884.499558 14878.546384 16244.103003 17031.606130 17684.293868 17982.051568 2503.820181 3399.119948 5073.270751 6269.542906 7993.717969 10234.275154 11283.969434 13487.286903 14554.710675 15411.880902 16802.361953 2306.727779 3384.688664 4458.888364 6224.802820 7762.487650 9652.132676 11047.883911 12735.897834 14840.912431 14338.563004 16143.758794 2401.487142 3199.891585 4492.012229 5996.833640 7747.263387 9517.550570 10812.926780 12706.734847 14143.989953 13703.648242 15726.213202 1893.167091 2823.010714 4143.703844 6068.853226 7486.225208 9155.948962 11041.517908 12292.357230 12601.702575 13981.491141 1990.733789 2803.580517 3942.534686 5321.572955 7684.893638 9423.256790 10667.302592 12475.039805 12703.587876 13557.848261 1957.505844 2902.229980 3857.799853 5701.095115 7549.960233 9245.726128 11034.164432 11624.598434 12971.136103 13978.635477 1890.173346 2636.365671 3994.420309 5756.425194 7311.069867 9159.235217 10200.985072 11710.827793 12969.269258 1930.597832 2544.454541 3821.313498 5707.261026 7734.149613 9244.105876 10544.230004 11536.737665 12404.415782 1563.974741 2588.041650 4056.859607 5692.723228 7388.928349 9506.242083 10659.854671 11266.229983 11972.866986 1935.929900 2720.722448 3857.733153 5948.861328 7835.519008 9426.092917 10352.404704 11448.683266 1887.301982 2936.919998 4284.942155 6475.000063 8355.131240 9874.296800 10760.388034 11328.359758 2068.768725 3273.576501 4413.521004 5880.006112 8686.005855 10009.914412 10981.857575 11503.268440 2047.399863 3048.701849 4457.629877 6553.351625 8029.320370 9903.505315 10810.890467 2118.829703 3023.810549 4747.429971 6336.901950 8101.683888 9429.717109 10411.190552 2208.938695 3228.263257 4455.693914 6328.729108 8007.130220 8938.475245 10070.372888 10551.352114 2062.609704 3416.492604 4540.656836 6528.789009 7537.516021 9279.412348 2252.955751 3341.727643 4521.107602 6450.591918 8295.701303 9091.605133 2219.419301 3218.348917 4932.554105 7391.529806 8461.873651 9153.874735 2255.246581 3256.073046 4970.653086 6124.243373 8387.464111 2188.937629 3555.868661 5575.332148 6761.834828 7884.734826 2080.902960 3835.257235 5245.224081 6682.034917 7683.988778 2167.687781 3568.025994 4297.692456 6565.344793 2268.314638 3237.300813 4764.170111 5570.746725 2610.643042 3390.702908 3807.294071 4605.633240 2372.489675 3306.471245 3393.355751 4202.225926 2101.947815 2593.988611 3490.755231 1945.210474 2977.566640 3626.791556 2107.000054 2930.978153 2059.774262 2691.029342 2279.423677 2610.170649 2311.667222 2235.987150 2055.182016 -1413.079079 -2778.507992 -365.178658 -1521.311596 2573.610092 3037.102245 4305.756198 2858.173471 4557.459046 9368.613249 6504.165006 9399.490899 10368.282486 10587.210459 11784.067695 419.848694 1534.270860 1465.668567 3746.463703 5042.524360 6762.466932 7736.916022 9011.680518 9305.451478 9718.492766 10036.248089 11064.232915 9987.065256 11657.134896 12564.197379 2028.901899 2613.773711 3735.228511 4364.536434 5813.252841 6977.474586 8163.243164 8767.025312 8986.230474 9998.325268 10505.345164 9673.616363 11703.276111 12739.711884 13033.409389 1680.216813 2460.764165 3296.744881 4513.355281 5392.044181 6478.894145 7046.232148 7847.540670 8852.762546 9040.489138 10369.424365 10764.742045 11647.962491 12371.962972 14381.043875 2246.140697 2647.254450 3383.046348 4132.928884 5008.145280 6039.099284 6592.494974 7425.817691 8389.191974 9388.248671 10521.004437 10740.244043 11074.836433 11680.115244 12188.589153 2364.859680 2709.265532 3272.247355 3970.934839 4460.206274 5277.622756 6017.257133 6882.760857 8274.449681 9379.780423 9717.737522 10839.806125 11098.943165 11400.173727 11950.557999 2103.414977 2549.923302 2983.810430 3225.014169 3943.780038 4556.675398 5721.292610 6957.558966 7870.916846 8843.786792 10265.859087 11109.489852 11418.279017 12064.537447 12773.313038 2021.191775 2339.382848 2460.357354 2862.157773 3176.253060 3808.831792 5238.105449 6400.806856 7648.741041 8940.451351 9701.647119 10823.465775 11528.513951 11861.182855 12899.553285 1739.659357 1658.754006 1843.739141 1968.585527 2332.267839 3666.726824 4749.411149 6400.216305 7728.082687 8952.274044 10032.502057 10614.728893 11002.267280 11577.083032 12439.449318 1043.987746 880.330498 1162.994714 1263.095192 2126.663939 3455.692136 5023.869570 6518.368516 8139.322448 9087.862582 9455.093098 10168.768081 10980.576717 11665.251190 12089.025391 537.710151 441.905289 817.578701 1243.334860 2549.367216 3896.337205 5528.550817 7329.486739 8089.389947 9243.168713 10489.627709 11677.343584 12316.139045 13515.263616 14276.831789 203.132680 370.485322 942.539808 1940.038397 3432.206624 4895.049822 7012.388523 8798.514026 11094.282086 12943.495208 13982.330539 14667.522743 14953.167226 15151.466504 15708.459963 141.048000 661.319763 1417.764431 2674.528795 4848.970955 7185.593968 9875.382715 12058.866798 13416.984227 15105.817856 17088.999297 15964.290792 15584.657862 16810.526794 15983.398291 300.834770 810.489307 2210.513793 4663.287583 7665.451866 11895.490033 14486.034889 15357.577892 18357.070929 -229.420495 5995.950646 22456.574844 -1316.119964 23588.700134 26693.577926
</DataArray>
<DataArray type="Float64" Name="Velocity" NumberOfComponents="3" format="ascii">