<VTKFile type="PolyData">
<PolyData>
<Piece NumberOfPoints="2186" NumberOfVerts="2186" NumberOfLines="0" NumberOfStrips="0" NumberOfPolys="0">
<PointData>
<DataArray type="Float64" Name="Pressure" format="ascii">
 27487.215355 26958.179764 26955.916726 27168.004701 27308.417072 27478.319213 27367.981208 27795.178840 28178.740342 27950.505378 27887.063021 28479.866643 28841.934057 28407.890495 28267.730105 28856.176422 28996.381790 28891.361273 28812.520168 28340.499793 28274.686767 28006.817207 26959.086876 25872.808308 24775.073744 24287.162834 27534.203455 27568.644845 27344.223829 27104.852662 27285.366510 27588.984652 27911.587231 28198.854402 28233.906405 28120.235793 28291.440650 28715.677141 28876.324377 29033.073247 29219.179030 29390.683811 29345.976164 29428.309797 29513.586567 29525.710124 29412.478320 29021.304801 28272.191155 27371.029789 26587.543881 25721.744165 24777.610143 24497.241052 27556.854600 27587.020174 27680.545060 27780.668534 27790.568322 27834.925236 27920.254074 28059.918357 28349.025666 28464.696108 28340.863496 28350.434438 28483.059838 28533.724850 28517.521446 28545.195461 28548.643432 28506.312624 28502.579445 28497.288484 28391.062013 28307.775400 28109.357229 27586.497454 26964.619978 26345.220043 25639.348852 25008.245120 24822.273439 24287.162834 24626.739643 25645.599238 25956.575002 25927.506576 25541.143662 25088.007680 24292.288576 23539.782909 23378.054801 23288.081842 23164.353234 23117.004672 23052.735867 22599.245322 21584.218885 20701.379300 20300.477142 19804.436815 19525.600722 19390.189223 18630.021707 17869.576016 17553.532041 16875.386945 16570.688564 16715.450909 16296.118822 15442.995567 14928.773515 14674.704088 14799.901947 14727.774329 13945.200445 13091.989340 12365.515985 11866.363329 11376.946278 11457.465987 11525.129805 11308.523313 10987.704525 10904.737189 10766.491386 10381.644044 10258.263200 10291.126948 10318.954328 10079.199275 9689.074661 9510.898278 9551.722071 9838.684299 9835.816102 9286.250990 8501.176617 8108.331847 7969.999097 7947.902398 7882.805190 7668.132603 7511.598943 7076.165448 6509.186544 6833.639183 7084.196179 7809.502390 7871.986058 7411.510171 7402.475980 7180.576168 6806.087197 6175.670149 6117.125368 5897.478898 5407.572646 4975.752971 4555.145764 3626.334387 3067.226029 2719.465835 24497.241052 24468.131336 24968.933545 25677.117529 26057.755968 25683.623208 24987.057565 24328.981270 23805.284437 23466.814496 23183.561134 23042.303244 22927.499663 22768.248709 22447.853271 21815.133588 21131.820433 20727.759982 20359.172237 19869.737937 19360.929841 18555.335152 17850.443627 17713.494256 17486.700347 16981.339743 16659.514282 16250.914240 15518.752694 15074.442797 14813.735492 14630.358699 14356.137049 13856.915176 13258.440467 12689.860533 12250.712370 11903.134400 11693.400282 11458.352436 11204.227966 11107.675153 11000.466761 10851.249444 10573.796357 10332.358467 10226.781189 10121.379138 9924.326056 9786.016596 9768.491996 9809.177449 9848.783434 9746.984726 9345.525884 8757.337817 8321.222615 8112.103552 8015.116322 7908.753923 7775.288430 7632.146548 7422.009534 7110.302569 7226.444052 7756.832041 7926.013934 7805.670185 7895.910438 7985.192841 7519.336955 6870.246988 6439.190205 6092.440062 5753.777301 5404.019642 4994.477270 4476.898881 3841.484450 3261.911755 3111.687517 24822.273439 24815.977665 25009.965154 25365.249295 25582.299404 25419.163958 24987.153396 24467.001982 23934.957445 23456.121593 23080.741804 22812.503120 22555.084968 22263.527394 21912.904711 21484.263625 20992.177329 20525.764441 20144.600128 19828.418722 19487.978800 18968.946030 18319.372294 17801.913537 17417.760711 16980.788119 16539.293466 16168.795787 15770.667548 15380.084003 15033.879093 14698.020606 14339.077080 13885.704658 13344.449308 12821.444373 12379.195964 12039.996499 11757.968175 11503.632860 11323.824858 11221.732002 11110.180712 10946.486499 10729.909963 10492.457019 10306.362137 10165.452122 10020.788063 9896.916330 9833.703864 9821.437842 9815.853810 9747.985265 9539.378295 9177.484259 8762.129274 8425.118664 8205.488998 8056.155808 7929.930359 7808.057354 7714.170068 7671.640516 7683.797954 7772.383395 7842.045850 7816.637161 7801.204595 7793.585594 7620.194928 7240.018497 6803.221528 6417.250607 6082.071905 5754.014101 5380.640772 4930.142084 4409.960151 3881.625222 3479.507409 3355.521462 2719.465835 2528.039369 2328.217826 2271.852341 2248.388675 2169.139701 2011.237138 1848.135707 1702.815393 1600.150127 1548.080323 1511.461105 1485.864761 1466.118289 1451.139481 1439.335249 1429.285343 1419.933344 1410.560723 1400.705893 1390.077863 1378.470131 1365.641523 1350.966032 1333.270801 1322.234180 3111.687517 2788.319576 2525.622488 2400.107110 2355.637514 2300.848772 2209.467846 2075.893535 1917.761112 1769.457313 1651.333993 1575.889139 1528.948412 1498.013403 1475.371259 1458.540903 1445.651261 1435.142591 1425.834144 1416.893125 1407.764945 1398.097413 1387.674795 1376.367433 1364.103546 1350.909352 1337.397720 1327.940412 1324.161097 3355.521462 3174.263416 2889.560067 2629.551766 2483.881274 2405.451609 2327.707478 2223.456134 2086.513472 1930.581089 1783.203667 1665.657377 1584.654933 1533.118716 1499.254274 1475.627093 1458.514744 1445.529690 1434.972706 1425.623994 1416.639988 1407.464191 1397.747783 1387.288687 1376.002231 1363.954631 1351.541857 1339.861086 1330.745542 1326.304637 1325.154748 1322.234180 1306.844851 1278.593831 1251.005420 1223.270268 1194.713836 1165.193960 1134.706134 1103.298851 1071.046369 1038.039170 1004.379423 970.177878 935.551199 900.619514 865.504158 830.325661 795.201984 760.247012 725.569318 691.271164 657.447723 624.186512 591.566995 559.660342 528.529328 498.228334 468.803455 440.292683 412.726162 386.126489 360.509073 335.882517 312.249031 289.604869 267.940768 247.242404 227.490844 208.662995 190.732046 173.667901 157.437594 142.005689 127.334662 113.385257 100.116828 87.487646 75.455191 63.976414 53.007969 42.506433 32.428484 22.731062 13.371508 4.307670 -4.502007 -13.098415 -21.521742 -29.811448 -38.006257 -46.144171 -54.262499 -62.397892 -70.586401 -78.863533 -87.264324 -95.823403 -104.575072 -113.553372 -122.792149 -132.325111 -142.185866 -152.407947 -163.024809 -174.069793 -185.576050 -197.576422 -210.103247 -223.188101 -236.861446 -251.152157 -266.086928 -281.689512 -297.979768 -314.972499 -332.676019 -351.090439 -370.205614 -389.998716 -410.431403 -431.446547 -452.964505 -474.878981 -497.052662 -519.313271 -541.452156 -563.232451 -584.427299 -605.037700 -624.756045 -634.673809 1324.161097 1317.404671 1300.922830 1276.661700 1250.517449 1223.158688 1194.713376 1165.225248 1134.744861 1103.337162 1071.081477 1038.069910 1004.405205 970.198368 935.566216 900.628992 865.508127 830.324233 795.195339 760.235389 725.553001 691.250471 657.423001 624.158126 591.535319 559.625760 528.492220 498.189078 468.762420 440.250228 412.682630 386.082212 360.464361 335.837664 312.204312 289.560537 267.897056 247.199525 227.448990 208.622337 190.692737 173.630074 157.401364 141.971154 127.301901 113.354337 100.087799 87.460546 75.430046 63.953237 52.986767 42.487201 32.411210 22.715730 13.358095 4.296150 -4.511664 -13.106240 -21.527769 -29.815710 -38.008786 -46.144999 -54.261654 -62.395402 -70.582290 -78.857822 -87.257031 -95.814543 -104.564656 -113.541408 -122.778643 -132.310065 -142.169284 -152.389831 -163.005162 -174.048622 -185.553370 -197.552252 -210.077619 -223.161065 -236.833071 -251.122540 -266.056200 -281.657846 -297.947392 -314.939703 -332.643174 -351.058009 -370.174171 -389.968960 -410.404176 -431.422833 -452.945393 -474.865489 -497.045117 -519.309289 -541.440083 -563.169616 -584.168739 -603.985801 -621.807559 -633.699244 -638.929951 1325.154748 1322.719067 1314.049869 1297.199623 1275.168604 1249.976410 1222.953720 1194.616813 1165.164208 1134.697013 1103.296054 1071.045512 1038.038908 1004.379342 970.177853 935.551192 900.619511 865.504157 830.325661 795.201984 760.247012 725.569318 691.271164 657.447723 624.186512 591.566995 559.660342 528.529328 498.228334 468.803455 440.292683 412.726162 386.126489 360.509073 335.882517 312.249031 289.604869 267.940768 247.242404 227.490844 208.662995 190.732046 173.667901 157.437594 142.005689 127.334662 113.385257 100.116828 87.487646 75.455191 63.976414 53.007969 42.506433 32.428484 22.731062 13.371508 4.307670 -4.502007 -13.098415 -21.521742 -29.811448 -38.006257 -46.144171 -54.262499 -62.397892 -70.586401 -78.863533 -87.264324 -95.823403 -104.575072 -113.553372 -122.792149 -132.325111 -142.185866 -152.407947 -163.024809 -174.069793 -185.576050 -197.576422 -210.103247 -223.188101 -236.861446 -251.152157 -266.086928 -281.689512 -297.979768 -314.972499 -332.676018 -351.090437 -370.205608 -389.998698 -410.431347 -431.446369 -452.963936 -474.877168 -497.046886 -519.294883 -541.393667 -563.046400 -583.838522 -603.118231 -619.756481 -632.380889 -639.116778 -641.225865 -634.673809 -635.552131 -632.997958 -624.587286 -609.585347 -586.616815 -554.129702 -510.453120 -453.828550 -382.431121 -294.388545 -187.797346 -60.732932 88.751036 262.637824 462.978345 691.933438 951.817269 1245.125583 1574.531778 1942.851605 2353.069672 2808.803652 3325.786025 3922.660008 4398.931989 4957.715464 5512.742593 6097.594055 7331.082319 8408.936183 9123.323521 10260.239124 11504.599190 12859.173337 15551.102944 16436.950696 16656.018455 17414.691674 18304.235692 19193.106069 20091.360676 21220.060312 22519.842804 23848.444575 24749.741985 25413.739823 26241.726661 27022.831400 27379.014362 27487.215355 -638.929951 -638.395733 -637.434791 -633.663556 -625.020151 -609.990281 -587.063525 -554.642824 -511.042662 -454.499149 -383.184986 -295.226488 -188.719338 -61.738685 87.661354 261.462815 461.714702 690.575455 950.356026 1243.544941 1572.789590 1940.801725 2350.138268 2802.712610 3297.252622 3829.260222 4370.228765 4947.172246 5571.730037 6331.504875 7333.340091 8323.283217 9291.894084 10477.608128 11813.216027 13164.623363 14519.612067 15722.235684 16838.567763 17663.619164 18449.125213 19259.490254 20194.653332 21292.906391 22419.823409 23449.247998 24387.187426 25310.184754 26323.533845 27144.929913 27486.484661 27508.871205 27534.203455 -641.225865 -640.808292 -640.016512 -638.252894 -633.820006 -624.861973 -609.675423 -586.646285 -554.139305 -510.456240 -453.829561 -382.431448 -294.388652 -187.797385 -60.732962 88.750964 262.637576 462.977453 691.930200 951.805482 1245.082634 1574.375385 1942.283464 2351.008454 2801.439871 3291.428316 3815.544427 4372.139434 4971.158837 5637.983269 6427.401715 7343.137587 8315.603865 9365.971672 10548.502729 11827.850603 13137.219656 14430.681422 15663.090312 16686.856249 17586.666131 18473.845606 19380.118414 20349.489885 21375.753590 22424.537583 23425.185171 24341.281473 25143.556058 25878.121427 26526.631008 26997.563356 27312.707462 27500.696344 27556.854600 8486.529025 8868.404678 9798.098587 9358.685722 12596.725483 15060.575097 16011.458317 18862.053879 16482.318954 10014.058045 20238.187244 20785.728874 22427.883457 24463.966050 24544.330098 23564.457301 24999.638614 25435.237466 26713.342004 26960.112731 10016.134730 14556.237344 8383.377036 17637.203097 12072.780237 13128.568580 12864.754181 16646.807815 18933.482651 18991.197683 19833.757964 23175.287557 24916.896851 25563.357797 24944.359913 22312.740822 26207.453735 26483.553131 27008.502390 26820.838464 14327.303944 15867.600142 11254.438626 20116.478286 13444.364070 17314.709554 18580.650736 25154.367258 20382.401003 21342.053695 22890.507567 23711.957822 21608.687392 24458.066546 25651.477178 26381.767541 26869.464970 25409.448949 26770.468124 26654.211537 19588.136815 21269.714437 16614.971376 17736.185822 17866.028010 24169.212587 15704.093854 21850.700095 21645.279517 24319.758429 23924.311042 26985.866966 25241.629805 25127.171564 23433.154905 26591.399521 27197.186888 26238.097942 26857.006724 27131.822584 20270.272492 24179.633977 11268.980147 16432.794133 23280.610305 19449.661295 15560.238368 22451.859875 20891.493453 14589.316475 24852.372074 21989.767225 22835.515809 25048.039768 24257.892552 25545.144854 24586.749354 25799.796050 25551.788904 26628.279904 10569.956212 18309.657779 13661.860273 13737.085793 15303.606865 16689.409000 19901.734423 25264.990801 18250.076477 19763.960400 22802.139934 26489.849983 18537.776922 19461.969416 25013.575511 25709.980461 25019.871173 25866.405131 25992.504217 27016.272288 20633.991261 16781.680233 18709.013209 18085.962784 13732.956115 23031.542273 24118.857424 22847.519847 21805.975267 17836.705262 23852.821254 23936.530313 24100.629737 25608.565746 23367.862583 24010.280863 25666.963738 25624.379615 27166.814090 26997.092420 19843.696895 14413.648604 17162.263698 19014.614435 18249.237114 16280.122440 14627.096308 20131.986212 21170.785031 18393.570824 24654.526656 21393.896344 24696.650239 24974.996882 24906.483487 25282.608698 24535.375112 26366.928512 24995.640098 27172.593133 14224.661569 12980.337469 16311.605976 10988.441388 18311.278695 14939.397081 18972.264195 15552.461586 15572.578871 17724.597130 16103.406759 19593.413192 20919.051223 23524.337243 23729.430543 21020.523822 24715.332890 21069.945540 26768.671801 26316.871576 13017.345924 16679.895770 21525.197333 14683.889196 16623.162349 20220.164385 14699.054493 16350.452420 16197.191671 23923.570196 21241.641428 19806.425657 22062.262693 21145.280951 20825.480374 22782.798195 24652.232107 25336.196924 22497.966619 26990.272418 18332.490860 21342.932181 14247.553341 16674.405267 21030.844159 21705.695126 17783.925223 17778.184191 19002.128938 20585.231925 17914.724781 24745.893123 20036.009917 24857.447383 23696.776936 25208.336400 22339.690259 24777.103676 26430.438919 24768.823408 10304.172704 10983.941207 14040.603262 18491.887907 14817.333059 16500.927996 16044.351091 13069.531886 17759.745648 25046.662909 21637.743340 18949.640716 22929.935191 19885.291688 19763.893946 24035.384027 24488.484837 22819.368397 24147.624004 26863.757271 12721.180817 11930.499696 13447.426875 15723.794044 15847.057112 12746.721244 16479.390495 19693.078480 17554.874658 17607.238903 14413.733435 22023.142364 18020.978310 22866.955212 22079.237470 22368.654337 24268.744401 24826.569380 26327.464453 26539.379748 9372.017560 10892.174450 16846.383507 11657.879827 15241.016581 18379.560107 16333.672869 17871.008996 14295.431584 20263.721572 19410.376278 21041.456911 25061.523068 22184.845085 24193.162585 23402.443148 24283.184090 24040.415097 24855.700506 26792.535211 9898.249763 10002.389706 11404.287707 12863.843145 14091.518894 20027.090314 14264.647438 19549.319896 19987.043653 15858.246766 22937.302201 18551.463369 24140.826300 24632.353760 24949.907015 19257.148613 20586.094973 27220.083273 24236.763066 27095.611253 10169.138203 9380.117620 9704.808480 10489.111419 15756.468497 20917.628514 14829.032292 11940.346307 19692.118792 13736.708054 18796.406072 16246.808312 24984.747757 23287.752228 25196.648268 24541.501908 21606.097788 24261.219506 24181.687445 27244.809937 11074.171816 10946.699241 9602.375333 10889.217440 14111.184005 12425.570437 14552.101651 18400.728559 18742.769053 15606.206481 14540.171712 23711.707708 22084.928350 24770.209935 20289.566838 24776.780118 20668.225207 25062.809387 26499.817526 26864.809657 9174.099566 9408.519469 9159.508288 9972.377696 10518.631220 11895.436564 13739.736395 12757.326934 15256.722763 14994.663495 23087.433943 17631.264982 18150.540528 17404.527052 23132.073611 21605.955076 23631.759776 25009.481347 25099.456084 26665.551858 8039.895920 9617.155837 9464.390789 11199.320199 10310.647242 10459.059929 12913.985675 12390.922586 20479.433664 22554.911182 21529.622934 21278.210936 25608.449262 22703.010979 24949.398971 25591.927421 25760.300172 24809.663659 23865.702164 25261.927928 9009.031231 10111.801996 9132.040209 10709.428771 11585.916887 11429.554581 10231.306748 17598.949698 15040.440725 15870.372948 21274.118734 19676.986151 26606.009206 25722.285487 25812.662365 25030.930406 25915.064802 27396.607206 27264.793263 24552.645469 7079.984777 9047.205690 9935.517764 9977.491545 10942.838028 12470.937456 12794.658788 15751.050755 16106.279460 19330.337475 19324.339944 18098.813819 20199.406558 26391.651211 19555.350294 21138.687651 25130.479668 25057.681868 26383.094800 27563.812287 4645.514267 8487.073709 9265.028415 10288.705726 13019.046956 11436.857029 14188.728578 15941.121883 14539.463809 14248.757455 22274.238414 23841.650396 22863.780340 23885.520709 25553.809570 20216.629506 23673.409194 22133.678918 26860.610460 27406.994489 11174.752162 9645.823817 12162.128869 9902.655704 12085.027587 10575.950929 14191.605282 13904.086375 17229.659270 18688.103916 17747.586664 24342.704116 21039.369360 25381.820669 17986.159443 25745.710730 24009.931115 24504.742816 26522.290819 26081.122878 7548.134039 9398.283536 10033.072162 10390.006075 11533.456272 10530.639144 17386.421362 14229.066298 11775.176242 19645.676204 22919.014381 22422.554182 23051.303102 24486.656280 25716.372497 27081.332120 26871.167950 24438.408406 25128.425666 24432.985766 10278.273729 12448.515556 9471.441113 9823.024200 15799.008252 10595.799102 11683.102815 15847.280056 12753.149035 15626.593389 15611.369705 22090.733440 16994.473807 16815.360217 24306.534214 23412.192657 25781.229565 25704.547561 24802.354764 25971.903424 11326.577141 9821.932044 10969.530101 9049.162669 13162.002840 10927.921155 11044.327100 12368.114627 13389.848112 16902.108958 15217.796706 17412.918428 22334.508022 22452.909406 16967.087013 23314.541094 24048.513373 24916.647679 25642.328545 24297.343584 7454.382599 9568.538098 10115.076346 10549.410262 14063.517453 13423.627387 11041.457759 12798.102000 14533.235654 20795.488874 15271.788575 18239.421213 16221.045850 22378.371397 22827.586246 24641.332515 25354.431459 25129.035942 25899.108039 9965.973569 9195.314646 9628.590938 9480.678533 11294.677399 12386.422484 10258.585607 13960.731683 19236.333883 15388.016497 18904.151292 20375.630237 23810.451259 17058.041916 22379.666657 24715.938766 25967.318096 23692.760319 25639.602740 9127.087866 9701.953037 11763.620882 9342.339098 13630.316139 13642.181810 10294.958472 13004.128497 15102.296215 16901.969446 20911.258323 14289.474705 21214.883203 15883.178309 24550.394786 23992.846979 25527.381501 23834.712797 25027.555754 7468.101669 9376.883742 10035.496345 9304.949851 10979.362903 12056.828781 13064.724423 14461.070580 15634.176752 18382.862409 16038.506456 18195.610935 20007.152522 20721.740857 22105.678475 22034.522315 22745.177077 23377.812760 25094.473991 9087.419873 9185.505696 10930.155064 10634.088034 9381.459840 9970.421679 13135.766996 14108.118574 11668.681450 13415.719568 18682.094823 14473.194177 17525.488892 18653.027994 17124.515944 23035.504286 23120.262461 24460.315449 8804.392582 8918.727384 9437.346326 9731.547748 11058.344951 11393.012564 11994.279517 11973.892555 15940.150604 17029.371487 14488.318745 20831.753977 19465.970301 22850.276951 23110.093154 21936.563084 23009.747686 23523.141982 7951.004835 9718.004463 9280.470931 11195.871703 10366.140672 11648.318023 10368.546496 14774.716251 14513.727990 13809.383117 16688.590787 20542.596691 18462.662862 23679.580607 19715.990225 22398.453745 25758.880323 7915.966822 9650.782441 9872.650303 10288.586092 11034.321870 10976.394703 18036.328034 10463.624061 10466.680358 16795.363924 16248.300497 20719.312164 24516.184513 22453.839057 21756.706441 23177.210948 23085.548474 9656.727185 9171.367181 8871.619121 8871.767832 17286.656633 20221.539388 14382.567994 13223.633041 12171.203915 21038.944892 15666.894618 20793.336457 22913.238655 23029.229460 18604.918401 22339.522025 23164.160889 23172.406741 7308.135527 9428.364338 16942.478561 9846.568627 10067.013126 10013.972227 13015.899096 15985.153526 18759.544734 20478.715076 22367.869481 21550.188912 22374.147982 21601.486693 22412.801890 22566.436068 10044.503526 8722.382153 10867.549449 11148.764800 9679.223950 13935.701708 13852.680372 17344.456589 14150.910919 12272.646430 19510.445436 20286.154614 21724.239253 21616.293265 17115.615390 21591.621581 8912.151260 9071.358591 9679.136175 10254.581672 19504.373615 16034.817639 15522.438535 16909.216197 13510.921071 11487.751774 19147.995583 21331.520998 21485.369714 23704.976900 22592.091960 21851.541701 7629.059320 8950.192087 8687.580374 11173.867367 9389.552889 10181.822166 17275.045141 9330.233521 12175.837030 19115.924849 16997.999140 20717.542731 20831.773325 20607.063107 20626.981897 7940.393629 8636.099720 10265.305621 9300.352806 11622.042885 10330.373347 11321.712865 11816.348157 17987.545908 19332.909065 18962.875368 20231.541820 19918.864135 15593.380975 19785.160911 7464.677559 8812.593653 8080.061144 9213.414151 10507.831734 11633.771703 9012.195298 13896.318650 17319.883078 12236.607015 21462.256005 12189.621194 21980.349688 17412.091650 19242.404061 8171.398889 8365.769319 7927.945764 9111.389728 10365.032065 10749.847702 10349.707893 13098.043306 12377.128370 10375.034995 19934.595570 22038.271341 21836.082231 18925.111132 7271.696749 8366.837074 9675.772715 13639.614353 14839.468559 9940.902589 9915.850036 12829.400166 13599.400769 17428.695087 17897.582441 16445.513195 19984.455917 19233.611579 7325.398487 8198.252347 10138.235111 9763.934787 13505.948153 9055.895920 17379.077509 15276.117863 9741.974505 10125.860758 18505.810241 21699.271995 16819.545264 19182.512309 6546.766367 12564.496752 9401.890688 12163.505476 15521.589666 14448.066051 18384.369629 15084.398023 18722.055201 16576.468502 17499.724943 18513.677013 17695.576207 10686.683197 8534.169737 8841.647904 13686.543486 8029.339864 14612.617656 9703.501275 15348.266771 17306.497483 17143.756161 17946.363202 18645.909676 16777.169505 7810.083562 9290.510460 15349.896753 13094.158376 13455.021778 12345.751185 14828.410831 8654.976587 17646.930669 14420.135939 15085.348371 16057.556579 16446.445155 9214.801078 8644.905041 8331.336820 10580.561464 6840.776012 12975.755825 11377.150147 15851.635039 16913.895879 15176.702795 14821.373568 14982.226921 6821.639058 5042.382649 8217.952638 8745.921875 8639.962050 9352.159419 12442.158304 18134.278575 16181.867850 19472.858717 17046.351245 16548.659049 8408.638317 8654.524374 8534.340980 14792.370372 8309.170132 13013.154713 14953.210241 11150.284639 19158.728641 17922.475507 15233.412416 16546.459044 16557.657389 7509.286156 10532.084822 13872.800890 12845.551017 10408.007400 9705.825151 9943.878217 18805.883596 14607.219774 11890.835623 17684.911687 10247.387588 7836.036026 7600.850923 11205.600446 17023.574892 11621.310585 11026.791255 8803.935324 19985.372273 10958.977554 14573.658310 7382.167363 9595.299732 8724.083460 9423.850166 7848.321087 14416.327417 14884.149132 15788.842955 14600.203284 15870.375307 14456.117984 7249.828238 10917.201240 6710.192898 9481.100088 11162.729742 9554.786197 10338.324030 14743.021953 11725.956141 14730.662778 9322.775701 10050.424197 6871.054485 12121.357894 11741.467453 11241.904767 14197.593275 18967.791570 18329.266506 13187.300623 1811.735025 4782.396706 4623.841780 10194.819424 11474.499748 12401.479904 11531.489231 16382.961273 17708.091060 13518.391864 5200.764186 8764.218580 11647.043240 9105.570020 13980.820063 9973.573019 12725.634676 14039.458192 12315.202208 9507.279646 7683.915739 9796.573112 9245.749274 8940.118058 15134.683857 11044.605592 9591.291341 12566.495069 8782.116795 7917.754045 11024.150332 11462.406527 14166.780079 11209.541518 14754.821087 14716.355405 11213.182683 5604.730073 7842.558798 6826.176936 9140.148554 9803.856848 9613.204138 14561.996701 17641.901842 7761.024182 8275.354913 5706.781923 8869.447408 13099.419032 10901.700019 10166.557206 9960.499187 4811.867984 9968.524362 9507.494864 9048.522755 9109.251705 8660.164095 14475.091881 11474.740218 8112.267084 4556.981425 7850.472955 10216.102784 11354.018492 14346.886645 8854.908460 6938.603439 10258.201643 7218.528825 8251.620871 11135.277637 9820.013359 10870.131466 7116.552450 6771.714954 11008.651324 4835.822594 11066.809039 10502.659235 10818.533081 10833.719149 6515.533115 7907.873977 13403.526165 9851.091808 10229.308364 13950.557636 1623.105410 10288.986351 9235.882711 11292.424970 9584.551978 14301.117825 5739.532551 10079.102316 7066.308417 10914.637417 8258.308872 10293.360486 2193.314989 9068.240672 9256.032324 11271.494831 10202.704100 5989.750868 9860.765500 10520.759411 8931.637127 11443.076354 5451.942420 7471.018259 6976.926443 4885.507823 9586.964540 7041.974726 6805.880175 9378.221774 8756.199897 7408.334203 6658.915403 4270.231091 9296.753982 2238.247325 7942.462501 6807.504027 9691.377674 7480.045756 8936.940382 9049.985699 9610.539594 8004.804175 5741.272006 8489.982121 7616.992449 7905.480241 8106.223189 8042.845003 10426.380511 6389.814124 7950.660522 8530.665262 7896.861581 9686.635867 7538.694873 7075.635741 6634.660812 9485.533159 9587.826009 7931.543918 9235.135090 9546.122797 9889.193551 9979.689093 9027.907705 9985.839298 4294.735835 10625.602178 5528.069518 5864.045903 11360.534484 8898.602316 13147.131179 9763.840756 10023.933876 11382.476493 9942.734444 12288.700671 11802.299308 10001.084916 15823.103834 12875.467906 10467.445905 10631.557542 11875.955781 10744.853068 10391.930145 7662.966063 10023.667207 11637.193672 16058.770892 11191.073346 17898.370898 17498.417456 11682.403640 10705.914959 10294.374887 9331.499176 12362.870786 12128.183024 10541.958037 8862.175363 9345.913955 8880.890496 9426.586223 11216.112639 15114.094343 9429.058605 9429.764240 16911.044931 16491.650290 15045.346407 10520.638859 8212.946283 13916.760289 14416.535733 9348.408530 10121.476830 11104.511413 10025.424517 10951.467360 12285.089691 12510.789972 16399.747498 13406.448735 11281.924842 11551.852452 9657.608928 15008.382519 12807.392991 21593.110127 8937.313708 10259.677787 9467.078261 11122.745274 8118.862415 9738.446552 13075.829401 11029.312880 14248.161275 12106.482167 12845.847773 11483.977067 16016.917886 14954.580182 10745.959739 9599.174325 8786.553818 10643.700927 8844.163100 8725.391731 9732.633747 9765.597846 13689.521573 11047.271563 14573.298367 13484.317376 12806.231602 13276.473729 14178.422924 17122.169908 7430.337485 9368.597137 9805.252605 13572.025436 11074.024089 11411.611315 12659.094121 11570.025908 15876.241299 12092.374274 10417.300063 10575.066824 12268.282566 12578.470611 19720.568417 9307.555783 8959.532170 7861.870452 10391.353653 9436.707937 11069.137863 14383.490300 9826.025430 11784.854905 16978.516241 12043.853408 13556.280248 12625.456645 12336.209638 15157.609270 9404.523128 9624.568708 9892.598083 9094.170797 11690.588146 13501.413074 12109.002604 11643.032167 8712.965614 11236.776957 13359.547915 16469.465573 14910.148562 18502.915383 16613.598718 9125.157444 8199.378276 9835.469239 9267.722708 10116.577741 9747.181774 9837.581382 11903.700222 14491.677309 14355.298512 11823.242913 10968.419047 12432.846823 11063.070726 17169.289967 8927.594879 8214.395450 10688.227538 9869.032196 9661.318545 12415.791878 10984.349157 15981.809908 9636.960930 9780.343229 10233.373107 13237.273215 12777.382790 10319.977794 13331.083312 9112.479689 9586.498555 8603.518676 10327.466040 9628.834847 10019.712487 10067.890597 12493.331035 10303.103370 9836.202976 9673.725117 12004.724854 10395.948114 10031.555027 11320.967304 9013.259379 9407.748134 9618.687874 9859.475121 9837.515404 10579.709493 10128.907662 9700.792010 9049.955677 3290.630059 8901.655041 9831.819462 9020.094525 9725.030744 10584.570854
</DataArray>
<DataArray type="Float64" Name="Velocity" NumberOfComponents="3" format="ascii">