<VTKFile type="PolyData">
<PolyData>
<Piece NumberOfPoints="2186" NumberOfVerts="2186" NumberOfLines="0" NumberOfStrips="0" NumberOfPolys="0">
<PointData>
<DataArray type="Float64" Name="Pressure" format="ascii">
 24624.010851 25348.261368 25259.548352 25313.479900 25575.507756 24849.972679 23968.435559 24407.288279 25600.198694 26237.526728 25808.889465 25376.039219 25018.324650 24752.264631 24770.574426 25203.174400 25594.115194 25473.031363 24542.346366 24348.103304 24554.009219 24597.390886 24417.486680 24019.213812 24220.175437 24484.025001 25136.423181 24947.547181 25175.241093 25694.511445 25912.767677 26062.538487 25917.074879 25561.446247 25713.345756 26271.277977 26342.834667 25991.912149 26008.531309 25962.794703 25435.783375 25009.061679 25393.900446 25872.088718 25805.353150 25373.126593 25217.433438 25402.625597 25359.946502 24828.740226 24272.333173 24174.448984 24369.496988 24453.207733 25125.873617 25200.857211 25226.157183 25197.545492 25275.891101 25322.678839 25387.847219 25484.706723 25531.306199 25691.957262 25945.703552 25934.094973 25791.714809 25882.518062 26047.303057 25957.758664 25887.346299 26145.361462 26387.472057 26126.821790 25592.072898 25280.649878 25299.643623 25389.933778 25239.392181 24956.535337 24683.813263 24440.658054 24358.207522 24484.025001 24579.996912 24563.161682 24383.417469 23795.974581 23119.015292 22647.915855 22278.865790 21917.283067 21695.380421 21285.593104 21055.654046 20995.894801 20725.090405 20130.577151 20163.653915 20371.222850 19823.091883 19390.210516 19050.234440 18887.909992 18984.592707 18692.585957 17985.812535 17483.180969 17151.468054 17023.108455 16877.750483 16644.789750 16498.309275 16482.951328 16400.699684 16141.510875 15909.915135 15533.613204 15502.767626 15450.799659 15022.846931 14718.154894 14348.174283 14159.504602 13914.648814 13600.657278 13458.927683 13226.343240 12947.059094 12653.468834 12408.576685 12139.105896 11989.671519 11796.330406 11443.936666 11091.608576 10943.872895 10860.115485 10879.325940 10794.930762 10519.831347 10181.952572 9880.667916 9678.662901 9431.875369 9293.849201 9139.794586 9240.559971 9258.871951 9078.062340 8524.672976 7804.993020 7362.085869 7190.839624 7290.630343 7341.191208 7065.427343 6481.655566 5444.387987 4705.729248 4195.323759 3598.307039 3031.349301 2770.223375 24453.207733 24700.159096 25073.256700 24861.706909 24286.150511 23703.546816 23189.234220 22703.647965 22232.717897 21899.828479 21623.641516 21387.918711 21148.883275 20966.334962 20737.004021 20472.113247 20403.819046 20181.979178 19631.655602 19263.957267 19249.874087 19045.806506 18618.208038 18195.740083 17782.408753 17401.927169 17120.486208 16913.435726 16669.182352 16531.965308 16413.151684 16240.332918 16049.198642 15921.585855 15790.897746 15624.363563 15446.901043 15194.105767 14813.597827 14456.517351 14162.836334 13849.911472 13593.544820 13394.514667 13155.610852 12933.951049 12652.760326 12340.658021 12011.546843 11698.649329 11481.433246 11296.828693 11044.471108 10876.025155 10775.013045 10719.216867 10598.947828 10382.725854 10112.955544 9867.818858 9673.437828 9500.364529 9359.104378 9224.537089 9187.981872 9207.872217 8954.798030 8386.534499 7838.143837 7496.930989 7252.844206 7136.912846 7072.573004 6666.506133 5901.146518 5142.848494 4520.063033 3951.068754 3432.591628 3017.525316 2859.727332 24358.207522 24340.527464 24285.210503 24049.821752 23721.040116 23405.622631 23065.065177 22717.461860 22439.316121 22216.404237 22032.625321 21826.569369 21521.052641 21190.769512 20948.671717 20699.154063 20467.480810 20307.423091 20009.355392 19679.419186 19482.213590 19229.399913 18856.586845 18446.544738 18001.389476 17600.808180 17287.837096 17049.026946 16841.974079 16676.076706 16519.438273 16324.784836 16106.444295 15883.111178 15720.195652 15559.775077 15368.925791 15161.749388 14862.984583 14532.386796 14238.908952 13961.034802 13695.294442 13452.922738 13234.459402 13043.868021 12840.364116 12589.757614 12288.719779 11958.441162 11653.166413 11391.770609 11147.145464 10941.626949 10803.683769 10700.932157 10586.135282 10433.333930 10241.206792 10035.638192 9843.704779 9667.922940 9508.732438 9372.073622 9259.777882 9152.331418 8962.496126 8616.906848 8181.400133 7780.838169 7465.402605 7220.210248 6990.928388 6662.423789 6152.356149 5521.225457 4887.198910 4308.682600 3793.987404 3349.518642 3019.700326 2912.626013 2770.223375 2546.607471 2200.018545 1937.176226 1761.964574 1615.008059 1461.963628 1343.920472 1254.415311 1193.754319 1157.094841 1129.664785 1109.657291 1091.458578 1075.221939 1060.724629 1047.635715 1035.639037 1024.459015 1013.861520 1003.646129 993.628367 983.592301 973.094356 961.454705 954.577953 2859.727332 2739.294315 2538.725840 2260.740946 2005.622114 1804.565441 1646.877117 1510.437249 1389.874062 1292.307361 1219.662120 1172.751890 1141.819829 1119.497754 1100.388434 1083.592223 1068.688448 1055.306387 1043.122903 1031.860500 1021.283959 1011.195514 1001.429647 991.848413 982.341709 972.861001 963.717600 957.489346 954.934223 2912.626013 2848.312477 2726.796692 2523.673257 2269.497017 2024.591830 1819.379533 1655.335686 1517.535899 1398.137127 1300.407948 1227.475127 1177.594475 1144.445277 1120.224519 1100.446940 1083.455194 1068.484611 1055.071546 1042.866876 1031.585588 1020.990505 1010.885112 1001.111280 991.556916 982.192073 973.183311 965.109749 958.968019 955.935391 955.096492 954.577953 946.770538 932.839466 919.696728 906.843379 893.914154 880.818687 867.534824 854.063133 840.412522 826.595629 812.627159 798.523165 784.300656 769.977334 755.571398 741.101406 726.586164 712.044651 697.495978 682.959356 668.454098 653.999628 639.615504 625.321458 611.137433 597.083631 583.180571 569.449136 555.910631 542.586836 529.500061 516.673196 504.129762 491.893955 479.990692 468.445650 457.285306 446.536967 436.228808 426.389895 417.050213 408.240693 399.993227 392.340694 385.316975 378.956968 373.296607 368.372875 364.223818 360.888557 358.407308 356.821389 356.173240 356.506438 357.865714 360.296969 363.847302 368.565023 374.499687 381.702117 390.224434 400.120095 411.443924 424.252158 438.602488 454.554107 472.167762 491.505809 512.632270 535.612897 560.515237 587.408702 616.364634 647.456387 680.759392 716.351243 754.311761 794.723082 837.669720 883.238647 931.519359 982.603942 1036.587138 1093.566402 1153.641958 1216.916854 1283.497018 1353.491317 1427.011650 1504.173129 1585.094541 1669.899734 1758.721982 1851.718093 1949.114478 2051.360499 2159.628394 2278.033368 2413.303638 2493.345458 954.934223 951.666826 943.569789 931.803165 919.421197 906.767680 893.897923 880.820139 867.541336 854.070795 840.420085 826.602668 812.633510 798.528755 784.305444 769.981293 755.574512 741.103663 726.587554 712.045170 697.495620 682.958116 668.451971 653.996607 639.611581 625.316623 611.131673 597.076932 583.172916 569.440505 555.901001 542.576183 529.488358 516.660414 504.115869 491.878918 479.974476 468.428219 457.266620 446.516988 436.207494 426.367204 417.026103 408.215118 399.966144 392.312056 385.286736 378.925082 373.263026 368.337551 364.186702 360.849601 358.366462 356.778604 356.128466 356.459623 357.816807 360.245918 363.794053 368.509523 374.441882 381.641950 390.161849 400.055032 411.376325 424.181962 438.529632 454.478526 472.089390 491.424577 512.548107 535.525730 560.424992 587.315299 616.267994 647.356425 680.656025 716.244382 754.201317 794.608962 837.551829 883.116889 931.393636 982.474155 1036.453187 1093.428184 1153.499371 1216.769794 1283.345370 1353.334944 1426.850337 1504.006403 1584.921096 1669.715538 1758.514101 1851.444425 1948.636891 2050.218805 2156.269747 2266.326771 2376.654536 2454.523526 2485.221027 955.096492 953.959107 949.778618 941.600834 931.026900 919.151504 906.675744 893.862781 880.802936 867.529995 854.061652 840.412068 826.595490 812.627116 798.523152 784.300652 769.977333 755.571398 741.101406 726.586164 712.044651 697.495978 682.959356 668.454098 653.999628 639.615504 625.321458 611.137433 597.083631 583.180571 569.449136 555.910631 542.586836 529.500061 516.673196 504.129762 491.893955 479.990692 468.445650 457.285306 446.536967 436.228808 426.389895 417.050213 408.240693 399.993227 392.340694 385.316975 378.956968 373.296607 368.372875 364.223818 360.888557 358.407308 356.821389 356.173240 356.506438 357.865714 360.296969 363.847302 368.565023 374.499687 381.702117 390.224434 400.120095 411.443924 424.252158 438.602488 454.554107 472.167762 491.505809 512.632270 535.612897 560.515237 587.408702 616.364634 647.456387 680.759392 716.351243 754.311761 794.723082 837.669720 883.238647 931.519359 982.603942 1036.587138 1093.566400 1153.641953 1216.916841 1283.496974 1353.491173 1427.011181 1504.171598 1585.089545 1669.883426 1758.668749 1851.544312 1948.547144 2049.507416 2153.592267 2257.996796 2354.940742 2431.745066 2470.624655 2480.752416 2493.345458 2590.134720 2766.161231 2936.109016 3105.744350 3279.723431 3459.398792 3645.351604 3837.943214 4037.491583 4244.329668 4458.827080 4681.396365 4912.486541 5152.559548 5402.042825 5661.252000 5930.283293 6208.888681 6496.373995 6791.616539 7093.454311 7402.117562 7730.743391 8012.704117 8301.335996 8791.932128 9101.673236 9560.734948 10500.100222 11039.859628 11633.678054 12693.230923 13532.233808 14278.293992 14815.402864 15239.086854 16000.201712 16833.369403 17700.223192 18583.072664 19369.449281 20247.218724 21126.743988 21996.723454 22843.013432 23601.125021 24356.650237 24976.872606 25017.134526 24624.010851 2485.221027 2526.923656 2628.824485 2778.761418 2939.374757 3106.551281 3279.788089 3459.232509 3645.107673 3837.667568 4037.197141 4244.019042 4458.499703 4681.051035 4912.122757 5152.178694 5401.649280 5660.853547 5929.888544 6208.494633 6495.921899 6790.842557 7091.353274 7395.147045 7714.291235 8007.123857 8273.873448 8728.941791 9090.948762 9520.703785 10368.078076 10971.834113 11519.198030 12464.578919 13342.603962 14121.126808 14733.728232 15176.393925 15897.989513 16724.126164 17601.441558 18540.897856 19492.798411 20452.167872 21394.332432 22248.537014 23141.080359 24141.755497 24653.870444 24492.886674 24367.545522 24744.074683 25136.423181 2480.752416 2495.787420 2549.034094 2652.804740 2788.359002 2942.808006 3107.812844 3280.360007 3459.594819 3645.411971 3837.961805 4037.497307 4244.331424 4458.827595 4681.396441 4912.486300 5152.558625 5402.039799 5661.242162 5930.251181 6208.783319 6496.026591 6790.466514 7089.623789 7389.420980 7687.653977 7984.978605 8289.217330 8675.753287 9086.931472 9591.669433 10265.738178 10909.480341 11570.695608 12405.784019 13223.970413 13951.416652 14594.517092 15191.196226 15927.114304 16737.701563 17591.583155 18465.397455 19320.694516 20143.868130 20955.228610 21720.993666 22454.921269 23195.125246 23834.971609 24276.429774 24680.881607 25059.387651 25162.956665 25125.873617 11050.514951 11071.819805 13264.690597 13686.181344 14387.789794 14936.383263 14940.941184 18667.095660 16352.078092 14440.479368 19318.640524 19597.066605 20370.127864 21396.340069 21564.405219 20122.490518 22178.119377 22324.956433 24243.045286 24981.036136 13510.637033 16885.471122 13496.265380 17535.642553 15247.985772 14631.233655 14989.165268 17864.130127 18292.196324 18066.248424 18875.256662 21211.824573 20281.439083 21101.670084 20186.585229 20400.000832 23254.526549 21338.606239 24269.738950 24443.976582 15470.812009 17323.656723 13790.106624 18955.544597 15118.819063 17101.362963 17187.914729 22158.629026 19598.978514 19505.155536 20470.443803 20119.361654 19908.458830 21694.062209 20990.369045 22298.736957 21569.789309 20456.725037 24520.733027 21758.843760 18485.700789 19600.716933 15645.548383 16812.034225 17251.110642 20824.526585 15920.632591 19424.430317 19838.657179 21071.464704 21752.485650 24246.293293 20509.630660 22199.192542 21085.445972 22488.363462 24194.428559 22224.739968 23296.005472 24030.296840 18971.760920 20827.789841 16373.788249 16988.762315 21164.921963 18941.654233 16117.541721 20325.726798 19516.503277 16061.538966 22151.814786 20374.690176 20524.152286 21970.244513 21304.629888 20760.662286 21614.223492 22219.318061 22067.254991 23836.252563 13870.622527 18117.529391 15480.117244 15331.434108 16612.482357 17316.044716 19052.913998 21746.018803 18987.386123 18886.528323 20377.621275 22446.061908 18404.277721 18450.839383 21782.164142 21842.938891 22204.519641 22645.324937 21709.698599 22652.927627 19020.342684 16841.402274 18066.060671 18105.335511 15299.404742 20633.135903 21016.163713 20468.522556 19982.497179 16988.991911 21608.631827 21869.614255 22556.345124 22232.629586 20445.526717 21931.324969 21869.949504 24994.331384 23697.837532 23209.471906 18137.063297 15041.407885 16454.956436 18115.867584 17515.106695 16019.444268 16609.722295 19121.779553 19890.709479 17726.271606 22468.162816 19930.618959 21138.037017 22215.362568 21752.816085 22070.641090 21783.313007 21622.784162 23410.761444 25026.769675 15086.220935 14694.940521 16568.143378 13999.571161 18035.346377 15862.803413 18206.735409 15896.963366 16196.882495 16994.258108 16139.803387 18466.894218 19496.637445 20797.561660 21602.517854 19076.760965 22471.074692 19964.885936 25075.885472 24939.345688 14889.986710 15546.590021 19741.760620 15526.846548 15798.725988 17565.677445 14685.130946 14876.152926 16734.188448 21808.600169 19538.536266 18865.050615 20677.043939 19811.710068 19952.944856 21030.744377 23413.880950 22269.129909 21201.367481 24514.873101 17624.207926 18174.040590 15477.931869 17533.306576 18242.671665 19896.611875 16490.997699 16274.935922 18648.941104 18720.799666 17435.056496 21897.445240 18991.217590 23152.263427 20821.621121 22014.439320 21080.076478 22698.272345 24656.059143 23113.941042 13834.872079 13829.173885 15549.704460 16663.973475 15096.392135 16318.187500 15574.782742 14440.692049 15392.627380 21980.370874 19733.575504 15701.202866 19874.649423 18680.063870 18155.556045 23390.125088 22165.082218 21085.759361 22605.090705 24417.877829 14698.058407 14123.160823 14416.522793 16606.358521 16367.437718 14920.019801 15379.219203 17092.326243 16349.052273 16054.708148 14787.658451 20819.200859 15629.342579 21144.839127 20754.721958 19853.165360 22635.463422 23731.997788 24791.233548 24122.378928 12770.619191 13635.972160 16052.432926 13770.577449 15727.164749 17319.348012 15625.206415 16974.741483 14489.104918 18948.831775 18201.423429 18790.535323 24208.565427 20924.465818 21066.696487 21426.366179 24477.918991 24230.614523 23370.995203 25094.598276 16820.996378 13453.395952 13943.398203 14674.099276 15870.390462 17444.381980 15012.301375 18263.774741 18889.897214 17119.299655 19721.948818 17856.203571 20667.606428 22126.258138 21851.394956 17296.014109 19692.594747 25208.666504 22631.369959 25800.915679 12999.046474 12481.906751 12273.310203 13722.150961 16523.131467 18890.674917 14620.638264 13997.466665 17318.339202 14461.712046 17172.585757 16428.041791 21926.520125 21150.779147 23464.060492 22100.180086 19775.855138 25348.792352 21700.141056 25893.491919 17415.695894 12781.725216 12373.151980 13942.424321 15023.052786 14665.812373 15278.962643 17292.926300 17175.267573 16376.626661 14869.893386 20621.109514 19051.536905 21802.616727 18165.636055 22027.404503 18950.100094 21725.103517 24105.647950 24938.020893 11105.507175 12317.876203 13169.578954 12645.181982 13415.940605 13816.395935 15471.025374 13983.468021 15807.219264 15245.573647 20641.206294 16469.133999 16297.839319 16355.746047 21208.845964 18943.186041 21893.143676 25472.424188 23450.329939 23800.280924 9694.920594 12877.489449 12396.411980 12737.234822 13553.117905 13361.878164 14099.797819 14727.713358 19012.299866 20474.202692 18574.456754 19375.801026 23972.208064 18940.060114 21983.188398 22667.114178 24024.069934 22660.086239 21341.845689 24138.650467 13045.273621 12195.694731 13207.819996 13506.880046 14097.189781 13356.318725 12950.586407 18913.273944 16062.179484 15344.540007 18925.513602 17273.500157 23039.260617 21158.508520 23572.342958 21748.546865 24001.655501 24271.909295 23845.015021 24294.095970 9628.501766 11175.891618 13755.728900 12316.263479 13351.062803 13895.867152 14277.637285 14732.494695 16023.798327 18043.519192 17224.039497 16584.791830 18096.425404 22301.635646 18331.686225 19798.517784 21099.903223 21862.422585 22315.079790 24241.767849 10581.882813 12368.721422 12816.302065 12856.441337 15459.694040 13887.871357 14142.780311 15388.354473 14422.840580 14420.296183 21462.474300 23729.970355 21534.731187 21264.137066 22164.770293 18119.091981 21494.177042 20640.481804 24256.926602 24237.319898 14466.151494 12810.486057 15525.125820 12628.255743 13233.448498 12903.660124 15048.074673 14489.309668 17984.074306 17913.014272 17277.339799 21403.063530 18083.511158 22793.576676 15518.008421 23113.539857 24255.767188 25358.563616 23847.753169 24140.641385 12523.866088 12367.133985 13191.678889 13007.578552 14096.619923 12638.257673 16586.736549 15522.037629 14081.128183 18030.726268 20476.574850 19498.272542 20618.632177 22067.167337 23627.039595 22804.743139 22915.463000 25641.464527 22850.641461 24483.043745 14969.685241 13357.264020 12989.329062 12863.362526 14729.706730 13260.515711 13690.773281 16289.586629 13642.172914 15179.350169 15182.190824 20289.679388 15709.841390 16498.974441 21113.882178 23247.169680 23907.225335 22728.617310 23746.601483 23515.973118 13096.715987 13167.596272 13640.904246 12951.318133 14110.474107 13140.682620 13047.277504 14886.887405 14892.554353 17957.012263 16902.979175 17623.493074 21339.523315 19993.364929 16145.591602 22050.574903 22824.096546 21923.167784 23629.694949 24482.617159 7384.315372 12705.995183 14174.871754 13123.939768 15260.823490 15938.954839 13626.227594 14137.857968 14665.903275 17140.477997 15503.940769 17806.842026 17445.848409 19649.414836 22935.451601 22152.893823 22677.827040 24048.970832 23411.779297 12414.682530 12978.342281 13049.222631 13012.934389 13664.479840 13897.076830 13143.823496 15555.299995 18641.346111 15138.389849 16832.780154 19231.521990 22328.696992 16579.144035 21148.830182 24426.861498 23992.500169 21478.845138 23134.651292 11921.964309 12866.445679 12900.977379 12926.203543 13789.726922 14170.136104 13023.735016 14132.184416 16070.969628 16924.745824 18702.239071 16608.504872 20970.729634 15895.097417 21930.035949 24409.917472 22073.093978 23121.511649 22608.347024 11929.999330 12317.056612 13259.700879 13046.996534 13629.277736 13208.896038 16848.207663 16299.670545 15869.187026 19126.578947 17739.034556 16902.905267 18012.341882 18975.468012 20044.760239 19046.141523 21446.995467 21353.572099 22386.215459 12189.698296 13022.436146 13431.576656 13741.898033 12746.395091 12239.840055 14466.460813 14300.988014 13423.823084 14020.866230 16929.088410 13369.382053 19812.872014 17787.772572 18000.538179 22054.486033 21774.446990 22140.437103 12093.171083 12173.450693 13036.436446 13181.599632 13490.765973 13250.865003 15020.328938 14031.971770 18517.169274 16220.609663 16272.588092 20175.813536 18743.148071 21499.171232 21353.959385 21800.745096 21598.485495 21971.023757 10273.024628 12459.118990 11968.362703 14271.725801 13249.896232 16720.985177 13012.344216 16184.190154 14766.205887 17136.088002 19505.294356 20808.410741 17893.420431 21695.612335 17350.003720 22310.320532 22595.697514 11304.244463 12022.366960 12534.073983 13135.281832 13439.202594 13970.906814 18907.693074 13340.656696 14147.662291 17336.172332 15338.608732 19602.656641 22722.762608 20888.889941 18328.090242 21012.973533 21688.991212 12137.022343 12440.575349 13334.548626 12197.648426 19095.628870 20890.095553 16061.167834 17209.924398 15585.147106 21319.856885 15821.765211 21746.344345 20659.697634 22088.522328 21055.105842 20311.456724 21073.219210 21073.260719 13901.067854 12994.115648 18811.702576 12795.178262 13165.393296 12815.087085 13637.533339 16276.747701 19542.656901 19963.244672 21855.821348 19711.939479 21646.093477 20819.123135 21155.608864 20761.342973 13040.077205 11976.148939 14358.465962 13268.054627 13429.030473 18850.694143 14780.903791 18569.597322 20049.497671 13800.785469 20565.293937 21209.963963 21248.542322 19879.274406 15447.954529 19915.740699 12575.804828 11508.935167 11499.510840 15182.330016 21304.964953 19186.132107 18606.460651 16582.560266 18278.964022 15439.847608 17212.207976 21238.927260 20290.320871 21627.771227 21242.155967 19950.430643 12565.946877 11145.361283 12202.307667 18085.902381 14199.317606 14313.344587 19714.402317 13572.152396 13754.925851 20374.253708 18637.435639 21532.727034 21414.215571 21384.963110 19813.524763 10868.495686 11347.029408 12657.414332 11615.302673 15421.899859 13137.271905 14817.377444 17670.241895 20980.061433 20516.561262 19051.637651 21473.756144 19924.286215 16613.933604 19858.709125 12785.574188 8357.018569 11326.469802 12211.470715 13978.488478 16019.846361 12169.996036 17448.957517 21877.104167 16357.447297 21301.443856 16810.532445 21067.692556 20570.544351 19458.057811 10695.022796 12484.072415 11298.756261 12036.314132 14130.816868 14287.997660 15290.060766 16962.594686 15617.463488 16205.653820 21365.998613 21347.955378 20586.242994 18777.680234 14463.287774 11227.732999 13387.662979 19386.490432 17783.382586 14795.560819 11741.697245 16645.163564 17179.037008 20915.750790 20123.280465 15757.454071 19913.340528 18651.376082 12585.414096 9241.310168 13225.732446 13604.888954 19036.086954 12598.186716 20865.369502 16743.744608 14433.180192 14395.289953 19775.267241 19699.069558 17020.085593 18795.180418 10666.657743 17552.977434 11170.930419 15370.877880 17491.500845 17108.427702 21545.230820 16598.980457 18779.373755 18258.994025 21198.632500 18696.515594 18498.080780 17490.518663 13966.765230 13012.660929 16016.043179 11170.965238 17565.301736 12195.253334 18594.030459 19406.133383 21438.730787 20509.657948 20431.895213 18038.100937 13588.011521 14994.679229 20270.500568 14999.507543 17571.409686 20061.607403 18913.356907 12155.552302 19998.227578 18158.724480 20207.708974 17212.247282 17755.648569 15328.537633 12759.472241 13124.197494 18027.082997 11823.416809 18253.685178 13747.630584 17176.780177 18016.614972 18274.961291 16471.546186 17395.562106 12711.304444 13115.819885 14090.963959 12206.638366 10754.044615 14425.056726 15761.536216 21077.012481 15138.647851 19429.341467 17713.716594 16970.425790 12922.329035 12297.769873 10965.381759 19080.905021 11057.252530 19138.891217 19897.900649 16994.330892 18706.046168 19316.709209 18352.247134 16969.075439 16970.154464 7747.106812 16737.976934 15707.209985 18471.086749 14703.495893 14350.628193 15752.841165 21668.902091 20045.528169 18015.123752 20860.561998 16388.007753 9469.174225 13174.383032 14400.376192 19183.852367 19120.933287 17817.541228 9065.601348 21032.865693 14021.310325 16366.843230 10862.797251 12332.319152 12363.508845 13073.990287 7902.145341 18885.026679 16601.757833 19287.621673 16355.897429 17711.373925 16310.862060 12827.458349 16978.172329 13411.003989 15561.298824 16705.735645 11990.350826 16056.948683 18345.391236 17593.175722 16216.732587 14002.844364 14812.487902 12170.454978 17592.131851 17521.207890 17367.027287 16295.614770 21030.244282 21358.413194 17888.563359 1322.947496 9780.987346 7752.231310 17300.719370 14183.239809 17678.160413 14628.143269 21087.752456 18692.361096 15522.544959 5942.648994 15866.348691 15181.845308 14639.177091 18320.413768 16839.472646 18171.211631 18677.770412 15125.438965 11011.135590 10861.469357 15568.999763 12395.401624 15291.504308 19218.851551 16216.761577 13767.879443 14547.176610 11489.257138 10710.785486 15800.986110 16421.553333 19923.846408 18228.313067 19627.382932 18647.376836 14941.980719 12365.727879 15412.950993 14735.768429 15960.282666 14954.899390 16143.948468 15989.100821 21223.673048 7081.516091 10930.739927 10246.332572 14743.213540 19112.535361 16139.194360 13008.790985 16515.975026 4594.078145 15471.860539 14499.077441 15980.391143 14082.214724 14334.474293 19185.171040 14137.197762 11351.388602 8057.617697 14813.433142 15622.876797 16429.788329 17759.953120 14449.935419 11756.007677 13617.855297 12551.626640 12594.181729 18366.247036 15552.357105 13529.107887 12710.612260 12149.310707 18057.178881 7176.142022 15967.352482 17188.548835 13527.797886 13528.409021 9382.982062 14891.307776 16799.192753 14055.981676 12890.177459 16960.469915 1202.234454 13739.449400 16065.382428 18283.091348 14496.838517 18491.543994 12157.992649 16949.380954 13973.289012 14058.944384 14054.891055 12704.457184 1759.457350 15273.021653 14204.979728 18231.520570 12537.253332 11208.830858 15896.444600 14481.628906 14570.008016 17821.881179 8358.061953 12649.430791 12694.659054 9992.861187 12423.023757 12336.305020 11769.394626 12650.738042 14462.574617 11118.078298 7487.451590 12299.369122 14355.558272 1908.144025 12646.073016 11796.756126 10993.115775 13351.444098 14124.455769 15456.361961 10984.476617 13933.496168 6919.991384 10974.401448 12645.995111 13705.191953 10913.251659 12366.993212 17075.827371 9149.486275 10205.898999 14530.500784 10058.869933 14812.075347 9406.024736 9307.018002 12319.710179 15356.346652 13747.226948 14567.504552 12872.123999 13334.332158 13546.798595 14812.376943 12262.691710 15603.328924 8112.973525 14984.629771 9101.923744 9124.121072 14190.417298 11441.367562 14138.094635 13242.788997 13606.635500 13896.699357 14446.752384 14240.257518 14918.469670 13731.876877 17508.865943 15499.618999 13862.357199 13552.213099 13978.787915 14576.114236 14682.671811 10976.319249 13945.853361 15310.381396 16120.814126 13875.401619 17502.826618 18325.376483 15275.016533 14097.895407 13600.053490 11679.420218 14257.716840 14238.331370 13659.040441 13054.210442 11938.485194 10604.167397 13135.144282 13827.738726 16765.204277 12663.048070 13651.274101 17304.340019 17913.874764 15859.530149 13470.624216 13825.079090 14709.022863 15525.995418 12733.494374 13699.589457 14974.606347 13710.913005 13792.675378 14508.293984 14961.925548 16592.854047 15656.531054 13891.715962 13794.542987 13916.637841 16388.633092 14560.058541 19758.852458 13916.361862 14042.542936 13113.326980 13879.294735 13627.531403 13328.430860 14383.134880 13551.494782 16074.252101 14284.992530 14110.910723 14089.385525 15091.855176 16008.049430 13785.921933 13350.193516 13355.912876 13733.080429 13643.689824 13704.377911 13803.438799 13445.403880 15304.605811 14369.786821 14643.525460 14773.000461 14579.918460 14457.501117 14782.940012 17514.963631 12912.404438 13561.556821 13492.857884 14714.480750 13981.934669 13592.233670 14101.683565 14259.706763 16749.832501 14097.537351 13653.012860 13914.114615 14617.836979 14101.802949 17852.033314 13446.692747 13336.164843 13242.095388 13777.930734 13514.004343 13883.687143 14918.302213 13417.163210 14157.359862 17153.831261 14158.642640 14328.253910 15136.838013 14610.717177 14256.243668 13310.907844 13465.904527 13992.319444 13178.668416 14151.667404 15043.355244 13918.720540 14376.467538 13525.118587 13833.202671 14758.618159 14902.661327 15222.200069 18229.149243 17314.060682 14775.347868 13700.231813 13698.655430 13842.668040 13754.096261 13745.871687 13595.774060 14170.463244 15725.833271 17012.932527 14555.310027 13870.719049 14420.229185 13884.269826 16104.684702 14028.862032 13644.462595 14062.488370 13704.113025 13754.485283 14374.071325 13668.775614 15388.457777 13405.782293 13799.827773 13740.053070 14829.073993 14851.787280 13963.161480 14206.921789 13370.718333 13509.135145 13287.014449 13660.383534 13483.409223 13566.456016 13949.318696 13841.450390 13156.017740 12805.927679 13648.782529 14305.860822 13682.698345 13481.174797 14016.930884 13214.028336 13458.327159 13570.615092 13544.444764 13354.618572 13880.733462 13579.119901 11930.158925 12099.109066 3905.445961 11569.523300 12349.840024 11581.696901 14941.929281 13366.747417
</DataArray>
<DataArray type="Float64" Name="Velocity" NumberOfComponents="3" format="ascii">