<VTKFile type="PolyData">
<PolyData>
<Piece NumberOfPoints="2186" NumberOfVerts="2186" NumberOfLines="0" NumberOfStrips="0" NumberOfPolys="0">
<PointData>
<DataArray type="Float64" Name="Pressure" format="ascii">
 29982.020777 30185.854018 30562.623282 30826.458141 30902.199542 30768.742740 30745.765847 30500.873231 30396.428457 30439.084733 30037.282694 30246.424648 30336.304003 30404.826814 30270.129734 30351.824466 30644.773240 30878.090039 30674.371425 30235.022979 30262.950384 29942.144229 29694.704028 29667.432218 29115.361200 28552.556082 30464.396815 30353.627045 30459.963316 30974.725406 31529.009211 31691.523072 31373.461086 31045.019377 31004.604923 31038.399431 30971.036862 30680.877335 30450.258691 30399.438298 30543.516179 30688.301407 30783.563780 31135.037931 31243.873977 30999.703752 30624.968176 30446.906211 30367.187794 30027.240596 29587.657810 29168.287211 28448.103843 27874.396983 30476.380929 30546.429485 30618.021532 30664.870374 30825.841554 31010.532618 31052.726008 30971.988981 30909.901726 30983.494224 30970.129007 30764.993272 30652.969549 30760.080736 31082.588827 31431.292437 31553.513647 31530.851946 31508.290419 31390.872852 31095.106688 30783.425017 30503.494617 30224.628422 29848.935219 29320.433316 28698.966878 27944.667792 27550.203405 28552.556082 28317.847668 28034.476742 27642.044946 26901.612781 26501.658169 26445.981819 26232.805025 25795.493589 24792.404864 24564.821189 24447.585679 24289.279788 24267.946114 23985.715638 23293.084609 22622.198794 21982.442225 21007.084615 20349.734825 20077.797451 20026.851360 19480.387920 18572.153359 18116.226441 17716.047313 17253.701838 16987.006434 16545.787754 16088.181953 15565.471545 15672.973264 15532.460848 14608.896844 14427.357399 14346.954765 13692.661400 12935.037626 12312.658421 12174.856535 12006.709880 11427.303162 10975.629692 10833.077986 10526.568148 10270.530807 9874.331302 9467.382170 9170.601102 8674.365739 8221.618298 7840.300107 7310.133732 6610.003156 6026.458768 5742.127769 5568.040891 4883.424994 4090.683245 3385.279359 2989.602863 2547.309149 2236.439362 2937.409007 3749.875449 4251.362020 3889.293669 3765.417739 3557.581584 3609.513327 3975.481928 3943.422497 3787.514910 3797.885235 3718.377923 3635.686165 3601.868743 2998.312182 2586.697418 2284.852911 2170.758943 27874.396983 27864.260059 28036.651293 27820.296880 27262.396719 26666.897016 26500.335391 26586.134568 26208.255566 25411.347003 24721.106817 24489.515110 24461.064608 24234.641457 23834.195130 23435.256167 22973.726254 22227.190991 21392.679776 20860.475734 20588.355292 20271.934991 19637.493952 18791.095793 18156.680053 17757.192497 17357.258168 17051.407807 16670.801415 16232.548725 15853.715583 15674.395138 15333.915463 14743.638629 14239.802123 13921.725616 13610.415210 13040.087936 12459.287238 12043.388722 11598.603881 11215.720846 10877.983718 10589.882690 10368.135998 10040.171292 9583.004826 9191.220787 8768.345937 8235.201134 7795.709577 7527.114207 7047.585954 6413.107696 6020.070205 5717.797038 5258.970040 4646.510430 3996.065727 3516.653414 3211.226661 3027.416035 3104.551317 3426.681930 3828.624166 4168.743289 4050.263455 3598.455117 3563.456134 3875.970745 3936.642868 3853.388756 3814.945711 3773.008375 3683.829615 3487.845422 3204.399788 2860.038928 2530.687895 2322.328560 2267.962947 27550.203405 27462.488746 27508.043728 27448.647760 27190.445766 26803.022367 26426.143351 26095.678824 25646.867904 25121.556166 24676.737413 24395.080302 24219.074966 23948.083793 23489.796182 23045.909719 22678.942480 22218.210851 21667.506723 21149.605487 20675.058802 20160.141280 19577.282496 18992.338915 18486.938946 18058.333298 17634.731241 17233.457191 16856.395580 16451.147255 16050.836928 15645.957142 15230.374666 14877.148332 14528.879626 14155.031340 13725.968061 13162.987313 12602.779401 12176.682467 11810.307696 11444.760061 11070.259871 10688.849126 10330.693972 9958.514430 9533.941878 9090.243043 8643.997070 8188.028214 7782.625412 7455.747238 7102.605352 6679.976238 6276.706654 5924.483223 5547.693448 5075.793837 4534.775457 4034.332643 3674.234815 3486.164645 3455.708453 3549.709930 3711.094722 3859.970167 3907.053653 3821.649559 3761.955807 3848.811702 3954.247484 3952.326235 3859.879240 3734.542296 3604.811371 3462.607287 3279.971558 3049.263574 2792.005047 2550.670488 2376.575342 2321.916958 2170.758943 2063.679923 1873.762153 1716.752250 1613.880001 1538.662094 1463.784513 1406.515407 1367.474367 1364.444539 1417.065824 1482.555478 1540.091752 1589.931927 1632.903167 1668.971934 1697.977681 1719.855103 1734.665034 1742.580130 1743.854800 1738.768557 1727.479208 1709.454986 1682.887421 1664.622273 2267.962947 2185.377666 2072.519801 1914.730957 1762.648927 1643.777614 1559.037561 1492.790102 1436.756018 1398.520917 1387.692330 1413.666304 1462.787417 1516.763611 1566.823204 1611.317064 1649.712176 1681.673248 1707.032822 1725.764940 1737.962476 1743.816020 1743.595124 1737.633094 1726.326560 1710.235734 1690.939514 1676.543035 1670.975929 2321.916958 2274.360845 2192.183079 2071.130331 1922.974836 1777.030579 1656.545685 1567.469205 1499.582319 1445.679608 1410.778195 1403.234479 1425.414837 1468.646694 1518.953458 1567.765545 1611.928288 1650.210198 1682.091167 1707.354834 1725.964460 1738.014303 1743.705018 1743.335156 1737.324497 1726.325649 1711.574066 1695.583368 1682.240094 1675.813852 1674.335752 1664.622273 1632.518089 1572.623113 1513.426100 1454.014440 1393.482287 1331.946289 1269.741788 1207.251695 1144.851939 1082.894241 1021.700334 961.560008 902.730593 845.437155 789.873124 736.201266 684.554924 635.039490 587.734044 542.693145 499.948715 459.511986 421.375481 385.514987 351.891510 320.453173 291.137051 263.870915 238.574882 215.162952 193.544438 173.625268 155.309170 138.498734 123.096355 109.005054 96.129195 84.375083 73.651472 63.869973 54.945372 46.795874 39.343274 32.513058 26.234458 20.440445 15.067690 10.056482 5.350625 0.897299 -3.353082 -7.447037 -11.428188 -15.337438 -19.213142 -23.091288 -27.005666 -30.988028 -35.068247 -39.274461 -43.633204 -48.169527 -52.907111 -57.868353 -63.074457 -68.545490 -74.300442 -80.357261 -86.732877 -93.443211 -100.503170 -107.926622 -115.726361 -123.914054 -132.500164 -141.493865 -150.902931 -160.733609 -170.990474 -181.676274 -192.791757 -204.335513 -216.303824 -228.690565 -241.487188 -254.682845 -268.264732 -282.218769 -296.530773 -311.188359 -326.183902 -341.519103 -357.212146 -373.309576 -389.908484 -407.206076 -425.629817 -446.332815 -471.436539 -487.101093 1670.975929 1656.196592 1620.836541 1568.739260 1512.435738 1453.763415 1393.438464 1331.951494 1269.749260 1207.248068 1144.834089 1082.862212 1021.655159 961.503021 902.663210 845.360793 789.789167 736.111050 684.459723 634.940504 587.632397 542.589875 499.844775 459.408240 421.272702 385.413860 351.792634 320.357064 291.044144 263.781570 238.489387 215.081531 193.467253 173.552428 155.240733 138.434716 123.036732 108.949769 96.078163 84.328196 73.608604 63.830980 54.910100 46.764162 39.314954 32.487961 26.212413 20.421285 15.051249 10.042602 5.339151 0.888085 -3.360176 -7.452143 -11.431430 -15.338931 -19.212995 -23.089601 -27.002530 -30.983530 -35.062466 -39.267469 -43.625068 -48.160310 -52.896870 -57.857144 -63.062330 -68.532494 -74.286624 -80.342667 -86.717552 -93.427202 -100.486523 -107.909385 -115.708586 -123.895794 -132.481478 -141.474816 -150.883588 -160.714048 -170.970779 -181.656534 -192.772072 -204.315987 -216.284568 -228.671691 -241.468802 -254.665039 -268.247568 -282.202252 -296.514814 -311.172691 -326.167910 -341.501370 -357.189114 -373.271324 -389.824889 -406.979734 -424.932947 -443.877395 -463.436197 -477.411482 -482.608533 1674.335752 1668.838966 1649.841513 1613.350211 1565.716259 1511.343769 1453.370709 1393.284041 1331.885203 1269.722968 1207.245896 1144.850153 1082.893690 1021.700164 961.559955 902.730577 845.437150 789.873123 736.201265 684.554924 635.039490 587.734043 542.693145 499.948715 459.511986 421.375481 385.514987 351.891510 320.453173 291.137051 263.870915 238.574882 215.162952 193.544438 173.625268 155.309170 138.498734 123.096355 109.005054 96.129195 84.375083 73.651472 63.869973 54.945372 46.795874 39.343274 32.513058 26.234458 20.440445 15.067690 10.056482 5.350625 0.897299 -3.353082 -7.447037 -11.428188 -15.337438 -19.213142 -23.091288 -27.005666 -30.988028 -35.068247 -39.274461 -43.633204 -48.169527 -52.907111 -57.868353 -63.074457 -68.545490 -74.300442 -80.357261 -86.732877 -93.443211 -100.503170 -107.926622 -115.726361 -123.914054 -132.500164 -141.493865 -150.902931 -160.733609 -170.990474 -181.676274 -192.791757 -204.335513 -216.303824 -228.690565 -241.487188 -254.682843 -268.264724 -282.218743 -296.530689 -311.188082 -326.182981 -341.516046 -357.201995 -373.275852 -389.796437 -406.833632 -424.394938 -442.170882 -458.896258 -472.226017 -478.750061 -480.272478 -487.101093 -512.949062 -564.143677 -620.498722 -685.692606 -763.301854 -855.776117 -965.247879 -1094.032360 -1244.959215 -1420.918674 -1622.977932 -1847.484850 -2085.127618 -2328.363115 -2596.828296 -2995.014977 -2819.036118 -1395.482193 -220.802013 2636.024261 3813.428427 5331.566545 4995.480576 4563.565899 4534.583129 4876.364782 5320.692443 5778.495699 6711.721995 7664.269258 8627.403028 9986.116037 11107.424458 12319.225121 13431.281657 14967.810298 16540.934571 17971.676962 19236.951604 20689.663860 22147.072027 23419.562917 24595.701321 25572.237626 26503.246736 27612.999397 28740.840675 29419.021669 29717.520587 29982.020777 -482.608533 -493.914262 -522.214237 -566.970671 -620.855194 -685.343976 -762.679676 -855.007437 -964.349430 -1092.960913 -1243.633805 -1419.215026 -1620.537875 -1842.842048 -2072.739194 -2289.494296 -2470.844598 -2590.390375 -2442.524603 -1311.964150 704.428053 2964.231273 4586.821162 5061.242064 4780.844522 4570.705316 4629.165973 4926.502233 5388.472463 5990.695266 6779.611199 7689.559416 8741.786703 10033.175149 11268.219609 12390.399007 13734.786016 15218.303821 16620.046658 17876.166051 19085.100205 20415.942036 21946.725177 23416.212558 24562.827049 25520.009318 26491.767918 27548.705064 28564.458087 29256.840709 29711.589134 30153.814541 30464.396815 -480.272478 -484.379410 -498.911402 -528.253525 -569.589018 -622.090538 -686.169643 -763.440643 -855.806440 -965.224671 -1093.932212 -1244.656366 -1420.015987 -1620.252724 -1839.159155 -2059.465828 -2249.046630 -2353.586513 -2266.012824 -1774.673194 -600.475485 1191.178936 2940.392110 4191.415843 4658.421106 4632.620867 4571.022368 4684.980458 4996.494308 5470.967703 6095.355289 6864.460382 7758.425409 8788.799837 9975.703156 11268.291014 12588.885668 13934.519554 15254.983226 16562.154623 17831.672138 19081.996164 20406.420004 21864.551927 23293.510541 24513.290628 25576.863545 26577.200484 27560.567534 28484.946399 29232.686671 29821.833462 30277.607957 30467.405111 30476.380929 7577.724641 8359.357386 9192.278712 8880.443704 13438.924356 13629.677737 14764.841907 20214.374029 19042.597509 9552.750645 22542.496330 23070.630195 24363.880588 26013.930652 26150.011603 25588.153602 27363.468372 28168.352320 29417.453836 29823.322207 10973.568210 14685.350213 7150.217738 18605.719781 10594.359549 13672.307886 10900.386371 18894.256623 20931.663415 19272.633146 23791.315785 25522.721391 27371.558133 27700.501541 27305.506439 25083.524491 29191.667321 27953.647851 29634.772469 29935.530742 15202.847240 17087.378930 10011.946753 22205.258565 12377.162159 20290.465250 20586.394602 27610.843739 23370.025487 23882.442626 24692.123742 25740.388976 23841.992561 27386.406964 27374.366588 27511.574980 27821.424953 28581.705589 30150.538718 29104.026890 21875.900881 25643.900219 16593.300375 20850.025247 17265.933071 26896.572737 17473.753843 24137.768388 22969.061793 26247.770651 27127.314049 29416.067726 27549.077164 27634.726431 26775.621195 29350.576169 29676.157816 27740.530621 29706.585465 29595.419561 21045.894132 26575.349923 9330.841382 17820.779760 24981.044907 22499.724036 16989.288080 22835.549547 24632.019014 16845.131161 27698.611480 24633.001108 25907.659169 27742.444429 27461.405011 28718.111833 27427.380820 28193.374478 28209.555389 29541.425809 11442.169888 19133.640449 13008.550557 14346.230655 15093.229381 17990.061079 20972.538222 27410.720060 19994.332307 22131.311525 26530.669205 28207.002419 21794.801808 22143.886007 27179.465390 27822.673692 26567.338922 28178.636645 27656.309809 29576.290809 21259.373227 17558.313328 19904.126148 17846.469899 13943.825913 24234.922988 27347.200972 23941.404847 24814.869741 19141.587053 26244.659189 25448.874637 28200.579894 27310.377987 25987.753473 25483.450156 27741.199262 28540.671408 29579.188515 29462.256370 20846.051720 15319.689150 17944.139086 20246.503455 19249.384658 17493.472978 14165.577012 19611.064441 23259.374669 19588.017603 26859.304525 25261.836957 26593.185505 26549.139123 27297.376228 27745.370537 26478.812675 27973.534655 29942.455146 29639.454688 16017.345099 15523.728380 19816.947137 10803.082333 20966.498592 15563.573579 19764.966870 16184.736422 17059.237974 19305.608680 17731.545158 21055.222065 22844.247162 25115.642749 26036.770555 23171.969585 26123.300364 22790.616171 29368.288590 29815.887063 13013.207141 18810.098098 24379.486679 13103.838008 18607.166016 22447.710999 17309.290364 17177.380058 16864.288981 24301.434489 23107.232851 22987.465861 23393.884902 24766.827076 22422.822269 24602.804566 29932.057649 28664.438214 24346.426594 29831.570070 20180.147214 24309.567032 17723.791747 18740.718056 23220.183294 24859.037086 18771.131507 19829.836334 21368.001528 21857.916021 21737.216814 26258.266277 21772.292516 29288.936255 24764.506368 28008.636568 24133.643993 28225.864930 29930.181708 29509.932848 10349.198831 10120.388933 14795.448562 22967.357905 16656.236778 18903.587573 15094.577609 12738.266167 19822.847490 27029.252919 23247.612863 21624.135464 26767.451118 22243.066151 21152.316752 30015.918725 26647.793573 25767.955343 28221.083507 30422.755764 13469.234538 14073.981444 14029.427705 16612.399670 19791.484642 14930.715928 17176.927024 22824.995655 20500.442878 18762.631461 16618.292647 23775.099053 18886.152941 26145.339765 25529.921387 23671.584798 27163.988168 27980.917604 30011.854461 30301.565698 8869.183417 9901.582658 16498.926173 11974.298500 16227.932802 20069.391465 16918.455398 18347.175354 16697.894353 23344.591968 22216.449080 26179.533330 27954.345209 25120.091870 27071.501798 25803.044330 29130.351046 29445.824898 29835.069244 30081.268608 8346.964042 8353.509940 12072.377355 15736.206962 16007.538400 21944.404649 16746.347203 23294.765238 20622.689008 16458.320605 25856.554092 20898.097422 27030.242903 26794.837697 26917.050441 21795.099779 24114.087428 30316.221485 28550.203542 29737.073609 10503.897604 9013.523419 8374.660881 9395.594422 17917.056064 24267.388028 14693.380550 12392.633588 21362.098279 14927.748440 21519.384405 18286.223709 27271.306291 25451.974689 28025.873001 26353.481403 23944.247834 29323.879893 27184.483228 29974.917639 11887.312110 10281.206298 8671.430735 10514.025371 12913.503919 11862.451973 18181.240499 21341.890801 19852.396396 18347.554448 14749.932735 25817.077452 24442.711930 27102.359104 22903.177604 27013.954149 24817.760060 28059.513774 30175.093030 30302.405415 7249.200940 8660.411107 7327.206038 9207.533002 10497.228730 11884.581233 14319.437906 13328.674868 15967.654073 17143.137233 25656.979985 21133.991430 21416.512344 21659.218634 25868.900947 24140.276905 25174.424620 29144.292425 28306.566237 29972.383886 9554.582995 9334.664007 9069.833865 10889.233843 9059.023436 9829.621558 11055.748466 12084.825441 22532.891926 23742.885323 24444.426928 22795.121289 28645.598311 25748.995783 27039.799187 28275.517560 29511.272995 27373.191612 25994.139280 28171.737955 8063.477741 9006.330036 7810.038556 9577.144367 10507.446792 10331.222850 10085.607518 19102.703935 18145.626750 16933.470517 21908.273546 20271.965714 28166.394707 27817.607821 27866.996751 26783.529000 29010.970169 29908.363201 30054.846526 29046.044366 11104.790630 7625.931976 8681.374404 9242.118159 9826.739639 13475.520598 13830.998371 15714.893846 16031.848702 20773.829095 22772.566954 20398.255879 23257.424702 27410.453012 24790.250887 26203.019675 26936.210414 27999.930628 26562.990783 29808.078682 6012.536349 8551.281871 8276.282242 9082.165206 13169.133906 11019.550790 14792.283680 16943.968259 13233.924673 14344.002986 24052.833590 25266.264167 24501.559208 26077.085980 27551.409396 22191.718224 23462.718551 25738.160092 29666.493830 29709.773787 11523.450100 9421.211418 12181.480842 9594.919001 11682.944599 10429.808265 15573.178556 14377.070042 17739.952969 19965.539954 18752.757479 25146.499199 23172.455555 25324.067341 20444.488331 27280.206956 29095.153689 29364.022513 29188.687481 29720.305057 4147.195384 9380.699933 9034.854245 9418.781938 11260.263841 9786.929081 18256.557461 15455.918711 12241.982524 21539.703716 23945.939509 25999.723180 24734.882753 26281.159599 28482.520211 28807.629415 29064.013247 29466.002367 29384.461339 29036.978339 11041.726412 11374.910662 8257.539653 9874.400556 16410.859942 11541.909340 11995.739760 16988.072406 13932.271883 16845.818573 16978.799795 21677.704381 20157.524028 18829.179072 25926.164853 25562.883277 27814.526216 28224.265873 28127.357767 27675.977541 11361.090463 8765.421649 10815.480283 8362.184086 12753.187781 12504.042054 13338.212808 13526.112194 15653.390867 18881.754075 16966.924048 18748.197277 23081.592941 23926.082106 18837.048624 25099.028118 26515.316539 26823.215896 26703.060037 28494.915220 9833.754027 7916.710131 9832.935513 10470.684481 15397.157222 12354.152973 11424.097565 13980.804263 15772.778264 22527.124451 15222.918782 21301.322886 18970.719035 24315.002917 23018.796077 25864.386853 26165.314878 29261.626981 27738.981613 8834.716118 7268.345235 9459.798494 7767.462323 10029.051178 13600.164766 11385.683667 14582.405648 21488.670069 18072.235915 21701.259468 22848.308307 23892.690287 19737.257300 23944.247669 26214.302446 26160.015796 25857.278560 27024.501585 9340.468898 8020.901222 12208.185261 8534.452715 13600.619804 12395.762910 9807.830348 13634.259059 16324.528081 17115.198094 21171.420162 15809.049786 22362.255449 17856.891915 25841.086916 24801.090879 26326.616951 24920.093600 26350.919865 6960.857046 9647.129793 9812.478154 8601.425931 10333.393186 13250.773423 13898.090775 13605.671024 15969.707732 18062.258826 16405.289615 21010.768481 20660.975800 22502.803697 23514.277644 23001.367926 24172.274328 27056.962962 26421.186005 9046.437404 7565.924756 12283.890421 11374.835524 8649.414288 9969.188783 14329.743624 14506.389683 12970.129845 13684.831107 20333.598356 16195.267044 20121.859814 21022.926534 18930.940150 24241.619985 24272.331791 25672.102607 8453.937144 9011.884542 8917.022390 10599.717477 12242.581156 11165.231312 12542.368482 11755.468033 15340.264413 17635.452789 15583.103837 20708.905293 22240.690705 23483.311940 25246.291923 22221.018538 24263.360799 25244.407016 8276.464302 9286.119137 9155.648158 13816.309524 10338.947704 12228.151982 10927.903367 14715.565205 16129.703950 14562.953362 17920.524612 21053.107533 19184.043405 23351.572449 22331.299193 23168.722162 26841.860401 8194.522841 7667.901265 8591.114430 10877.273990 12696.925448 12767.187886 18886.354085 11204.343816 10303.519340 17616.989727 18663.085482 21211.221304 23822.973525 23915.217673 23945.595152 25137.942806 24266.048428 10560.337791 9186.325865 10346.894582 9782.427266 15913.121101 19759.486002 14751.201999 12029.352448 13127.062295 19951.325539 17450.030396 20124.792820 23641.102503 23978.162756 19726.546053 23804.911633 24494.085396 24517.801803 6035.005694 10138.336338 16840.534765 9269.034774 10026.338298 10834.604665 14483.698399 17374.764859 20158.920080 22682.164677 21242.768196 21571.880642 22950.790312 21438.913666 22585.253947 24021.245454 10375.974957 8779.683190 11856.898800 10568.968852 10880.508906 14843.336434 15297.104487 17911.962193 13546.396323 13199.539279 19200.589808 21027.905962 22661.089842 22965.331628 19669.530342 21864.594791 7983.040577 7884.645329 8260.164692 10818.381708 19178.321156 15896.146277 16996.762350 17276.495799 13824.244514 13295.360294 21277.130597 19804.617363 22120.253206 23223.691386 23783.940572 23256.939715 9945.980813 8006.879794 8982.680140 11564.009976 11534.558940 10219.068217 16361.734181 9215.476396 13595.067807 17522.942886 19015.163733 21353.549316 20272.246377 19792.737233 22388.289905 8787.803094 8180.384346 10689.453765 9390.192265 13069.084047 10361.828291 12714.182003 13049.843982 18379.772299 19089.133126 20398.300355 20197.500578 19221.793626 14961.317884 21857.992561 6095.699094 10587.735090 7183.737733 8195.902445 12253.847538 11573.346937 9479.358007 13949.468494 16473.914410 11405.690192 22255.447331 14451.305340 23623.650124 17581.557323 21019.171929 8615.323175 8452.741339 8350.200923 8982.469990 11860.394295 11433.876829 12598.104152 14382.429031 14114.213652 10455.138167 19093.756213 22345.725291 23253.088746 20159.757239 2237.099163 7699.241875 11438.175015 13697.024022 14310.069944 12121.233431 10580.340419 14753.943949 15154.530383 18394.787430 18477.082937 17799.829668 21222.534701 19753.357219 9577.998251 9195.127727 11460.940712 9455.435916 13929.093826 8936.018009 15182.157716 17456.464288 10747.219284 12564.255275 18885.881551 20438.075329 15346.985903 19762.796601 9351.807397 15933.221561 8570.877585 13814.497934 15409.828919 13263.952634 18758.347432 16804.864263 18871.437521 17827.803333 18139.365280 19563.137403 19205.038290 11781.228432 8679.483619 8455.670410 14148.205624 8192.088560 16101.200908 9844.093254 14206.953173 18512.648712 17692.904616 18601.301585 19998.853930 18831.765756 4439.338583 10000.045541 15649.847102 12299.434299 13650.870477 12801.461072 14661.701285 9770.054380 18642.498185 15102.718317 16356.270280 17973.469948 18264.902461 10702.600605 8262.572110 8060.106917 10178.170700 9576.214728 14253.042923 12694.375700 17887.269257 17967.771119 17107.293161 16223.995307 15800.877260 3559.497086 10646.281488 10283.757065 8822.699519 8128.441709 8720.345719 13378.924512 17070.299299 16454.047104 19299.502296 19373.414635 17240.217629 9473.266982 8965.754698 8499.083066 13904.062720 8258.304679 13108.127708 16890.807683 12854.879716 19676.639894 18025.141722 16663.625209 17175.037059 17163.371330 3086.597209 11304.655426 14464.241892 12734.976993 12766.391886 11416.997597 10371.424974 18706.000743 14688.386953 12334.655276 18277.277790 9770.480052 10425.457406 3326.387185 12103.124475 15053.641616 10360.523195 10987.184409 8655.538468 19585.272388 11750.773991 15727.205026 3601.245982 9060.575231 8383.289181 8944.191140 9742.370956 13609.858562 13580.617593 17114.764675 15232.174199 16091.041442 15412.838190 4217.798484 11943.857992 10091.451038 9870.471020 11620.945303 9962.232278 10152.909818 14380.628656 11696.729466 15078.399042 7511.641900 10630.860419 9436.837228 12525.661771 13577.963266 12372.603828 16755.442921 16735.390924 17878.676670 14004.280384 1387.122691 9336.869918 9171.967052 10964.659877 12224.464003 13175.724878 12736.844548 17748.907265 18978.492894 14364.470081 8064.049946 8174.273540 13886.881621 10567.095847 12770.074098 12001.262432 12567.992254 13791.511055 14315.091366 7194.906241 8748.241823 10840.756310 10475.234594 11122.608919 14488.662601 10917.563367 11318.639514 14342.236309 7731.542058 8827.071942 11693.101022 12508.944887 13900.331081 12087.402614 14452.381594 15488.902651 13467.705073 3692.623374 7902.717127 5208.150172 11021.772693 10456.065244 10708.961506 15018.511264 17094.330239 10622.630465 9769.549569 8869.432744 10967.229048 13373.717622 12300.231062 10489.899355 11017.577049 3376.853674 8259.882151 10700.268600 10037.595368 11087.325835 9017.048192 15561.819704 12253.800714 2975.184658 6097.020286 10590.893731 10456.466169 12464.392695 12568.730150 8370.894380 10112.388086 11146.209770 5599.364061 10682.976303 11840.779245 8652.715440 11046.597200 6582.386634 3488.187528 11459.647027 3278.383168 11066.419542 11785.930764 11001.495992 10891.245219 8036.115976 6745.859538 12093.908475 8693.529227 9563.522806 12449.775626 1359.376060 9293.245466 10553.588968 11433.490802 9351.543307 13691.493119 4833.444385 10332.899576 9359.259915 11810.496803 10610.125623 9790.959722 1606.134017 9067.936281 7695.314302 11321.459642 9172.956595 2711.795622 8117.709180 11007.892389 10247.543591 13367.887919 3291.625554 2074.162280 4123.178945 5650.063712 8509.248831 8039.272463 3638.817696 7998.386488 9430.889026 9550.141893 3820.080115 3865.927535 7879.076680 1692.668726 4098.460047 7063.358714 6931.331575 9477.905203 6840.641691 8115.109280 6452.835378 5863.091540 4509.866877 6078.812851 3243.106774 3637.108821 5675.423539 5718.815276 10951.662256 2737.830328 3217.073877 5870.350992 3694.376453 8170.107135 2286.596589 2306.605493 -1357.691537 2936.283033 8166.671042 8049.836932 7977.651946 7795.401619 8342.704250 6989.523497 8168.331313 8686.162484 4524.967846 9977.571995 5433.329951 5576.037798 11779.940478 8154.839746 13750.898349 7902.829761 10462.039444 10376.890156 9514.008322 12907.505255 9949.100161 9714.409811 17438.001159 13100.248138 9821.231395 10214.934307 10920.738535 11426.869373 10489.567206 7668.283235 8591.020142 12049.343695 16107.207886 11299.930404 19691.358625 18489.614145 11695.258432 11060.115732 9649.338215 8426.935420 12173.729045 11572.610267 9937.415755 7924.140561 7473.259407 8256.475529 9416.904745 9174.967955 14599.209681 8236.636105 7896.048233 16527.559672 18687.115034 13196.420880 9102.212411 8618.027023 15408.673712 15639.398852 7666.262735 9079.732128 8880.962362 8828.549984 10540.665036 12519.702993 13126.537245 15485.765515 14689.484653 11270.459430 11989.112511 8906.404001 15609.980176 11977.533634 22102.376154 8762.221756 9368.577663 7543.936518 10185.896975 7736.608168 7822.150558 12598.298029 10226.822285 13820.991782 12967.266814 12441.187748 11081.655243 18562.777745 15915.769619 11630.966400 8423.252545 7296.147893 8668.751333 7527.339885 8231.490023 9673.662074 7704.182811 15755.354268 11250.009540 14627.062543 13715.735646 13764.697874 15025.419100 15144.014143 17706.932123 7063.680973 7923.957446 7219.484485 11497.165881 9900.948980 10951.372320 13780.243425 11517.336766 16717.417783 11803.694828 10209.509047 10249.973115 13254.749739 14858.770454 21158.867068 7662.627797 7957.942721 7738.018660 9130.206908 7753.278456 11845.329452 13641.769651 8519.620892 12397.230000 19255.433253 13256.246545 14324.995238 12371.376756 12800.668496 12311.898640 7871.153857 8603.520422 8818.837244 8912.774686 11138.577492 14532.489098 10394.675077 13172.924600 7750.118689 11024.200617 15531.373143 17255.524470 14240.543539 20330.451003 19531.570428 7412.831647 7654.358787 8164.159190 8523.895148 9428.612158 8359.763928 8537.190070 12005.765253 15741.939566 16392.017676 11061.941732 11106.054421 12905.806241 11665.137279 20001.548058 6445.573004 7318.715678 10029.273612 8749.967947 8159.130756 12165.085837 10027.232117 18253.688478 9385.008479 8530.394249 9551.591723 14657.105635 14322.833096 9751.590311 13488.170738 8169.557820 7923.908487 7993.226569 9534.210432 8854.346959 8355.197961 8991.485051 10872.224648 8904.863904 8959.474436 8354.513374 12711.017306 9002.698472 8259.267206 11114.028723 7313.067043 7338.212514 8555.398031 8665.373675 8730.451365 9167.581106 9606.993924 8311.529241 8497.392401 9146.767599 8404.404373 9849.522447 8430.205187 9545.836112 10092.993653
</DataArray>
<DataArray type="Float64" Name="Velocity" NumberOfComponents="3" format="ascii">