<VTKFile type="PolyData">
<PolyData>
<Piece NumberOfPoints="2186" NumberOfVerts="2186" NumberOfLines="0" NumberOfStrips="0" NumberOfPolys="0">
<PointData>
<DataArray type="Float64" Name="Pressure" format="ascii">
 24425.299983 24456.694359 24742.978381 24409.392782 23890.225003 23852.841415 24338.157335 24606.996421 24760.654765 24850.513637 25250.752070 25197.428692 25425.433621 25266.968656 25311.116275 26004.532179 26556.310010 26483.097745 26100.893537 25732.436083 25487.648695 25441.813080 25290.584838 25140.154862 24957.043606 24945.529873 25638.384178 25139.501091 24580.926648 24304.676996 24385.123438 24581.326591 24627.060267 24717.889782 25024.746565 25444.905368 25648.743044 25603.057819 25495.179603 25687.207281 26213.445642 26410.371200 26455.338509 26628.123691 27124.335702 27312.188417 26846.686353 26192.432259 25802.442141 25596.103281 25333.434229 25105.320352 25046.972006 25055.979282 25747.858209 25824.089115 25796.809050 25602.666378 25388.709299 25349.859042 25554.836132 25816.990867 25966.064966 25953.902887 25874.153252 25889.260228 25933.223320 26018.830481 26237.131125 26505.546259 26607.635036 26520.446280 26574.151941 26761.808473 26685.775749 26316.025421 25978.576256 25760.962570 25607.190881 25485.739794 25328.954856 25169.930743 25079.864297 24945.529873 25124.635176 25287.595127 25223.571597 24859.933919 24055.797794 23379.861615 22826.034866 22344.348707 21836.984621 21662.577919 21453.932975 21015.216176 20901.771480 21230.778206 21155.605952 20797.732268 20278.179505 19777.729633 19598.006868 19580.300766 19132.842472 18501.787245 18157.968045 17907.943503 17743.218819 17473.751399 17181.335058 16857.179606 16619.257663 16278.471086 16036.971224 15847.997662 15712.155570 15494.887498 15361.423477 15164.520134 14713.934175 14113.360628 13843.791991 13855.373434 13860.525836 13650.608719 13454.803203 13152.904972 12800.350292 12529.606474 12388.469623 12556.992723 12543.570589 11654.690613 10889.929734 10272.261726 10183.816290 10147.201614 9822.879478 9619.808320 9698.809535 9345.111597 9005.466547 8747.076597 8727.239583 8708.141479 8418.526353 8298.629223 7950.784733 7641.077030 7018.417492 6630.950374 6543.692473 6541.805091 6135.908205 5833.969123 5111.155485 4471.499037 3774.693376 3208.714865 2855.712490 2519.344077 2191.087569 2023.062210 25055.979282 25136.565965 25589.421363 25865.604317 25522.476852 24662.149030 23655.301749 22815.092470 22474.606258 22353.826329 22024.965300 21593.915655 21241.032750 21022.991103 21105.012340 21225.297803 21075.886232 20660.586387 20176.970663 19769.000535 19441.307599 19072.931780 18632.000878 18369.895990 18284.227867 17993.018734 17461.190443 17180.684128 16970.338006 16729.585810 16407.274349 16119.918813 15928.511863 15715.742694 15460.390229 15261.776025 15037.540184 14715.992652 14281.357132 13951.794031 13843.834937 13758.181395 13572.353318 13382.497377 13131.407573 12899.408232 12630.212767 12410.983961 12295.337784 12094.960768 11522.918097 10874.098761 10531.333721 10378.538265 10121.768518 9802.546183 9510.975920 9334.760453 9194.555146 8981.483375 8759.959262 8629.416475 8451.965536 8139.722532 7970.837435 7835.303532 7424.796059 6906.846998 6536.751626 6277.856065 6098.998422 5817.968636 5332.391685 4795.938935 4213.130474 3634.879976 3156.406788 2772.950991 2449.060905 2180.961452 2074.461928 25079.864297 25000.864012 24934.532587 24861.247396 24637.733474 24342.476091 23947.110870 23421.531501 22887.686231 22455.527429 22067.603982 21692.076108 21381.790217 21164.115030 21051.997302 20994.944407 20800.923176 20464.711820 20134.195769 19863.677145 19616.167227 19338.640044 18965.927990 18546.096322 18220.778380 17873.740693 17425.526701 17100.527537 16920.516561 16743.202417 16497.723337 16239.355085 16054.608167 15935.468727 15815.976457 15609.477658 15292.110252 14908.726561 14526.570223 14213.144169 14007.752029 13838.803328 13616.645643 13381.903995 13167.016356 12963.184540 12759.592204 12559.523947 12372.212234 12168.540925 11873.049560 11478.908914 11068.736784 10687.572613 10352.972629 10058.430277 9791.842784 9565.814802 9374.169717 9171.842716 8939.506658 8704.855220 8470.649896 8218.872443 7973.865351 7751.769668 7468.779160 7087.813711 6695.841163 6361.329496 6078.612654 5784.499547 5410.770225 4955.772492 4454.562510 3942.630075 3462.014030 3043.082323 2690.205995 2395.291455 2176.946540 2105.649746 2023.062210 1877.726842 1652.449104 1483.942941 1378.319971 1297.996418 1215.495256 1151.260387 1103.275600 1075.660074 1068.508248 1068.558320 1070.528959 1070.329464 1068.672973 1065.811668 1061.836937 1056.809971 1050.790745 1043.842364 1036.027075 1027.391399 1017.918174 1007.316050 994.981674 987.504275 2074.461928 1999.040317 1871.239810 1693.647434 1531.605461 1408.109029 1318.090550 1244.566242 1179.373981 1126.939367 1091.153668 1074.741898 1070.542370 1071.007339 1070.945414 1069.818677 1067.628249 1064.398033 1060.165196 1054.976334 1048.885506 1041.952296 1034.240054 1025.814759 1016.749006 1007.162424 997.549775 990.874697 988.131682 2105.649746 2065.347477 1989.261288 1860.783303 1699.651141 1545.489539 1420.000984 1325.431056 1250.055219 1185.532845 1133.728662 1098.480749 1079.924342 1073.436888 1071.924395 1071.157094 1069.826180 1067.561557 1064.288590 1060.018278 1054.790889 1048.659967 1041.687904 1033.947526 1025.534689 1016.612023 1007.538362 999.110573 992.569120 989.322295 988.431902 987.504275 978.464954 962.242071 946.866770 931.830892 916.748792 901.541442 886.200574 870.737725 855.168688 839.509084 823.773230 807.974016 792.123069 776.231002 760.307660 744.362367 728.404143 712.441909 696.484668 680.541667 664.622536 648.737421 632.897087 617.113014 601.397476 585.763610 570.225473 554.798083 539.497462 524.340664 509.345794 494.532034 479.919646 465.529991 451.385527 437.509818 423.927536 410.664460 397.747480 385.204594 373.064909 361.358641 350.117117 339.372771 329.159148 319.510904 310.463804 302.054726 294.321657 287.303694 281.041045 275.575025 270.948053 267.203653 264.386445 262.542143 261.717551 261.960553 263.320112 265.846266 269.590115 274.603829 280.940638 288.654841 297.801807 308.437985 320.620922 334.409285 349.862890 367.042739 386.011074 406.831430 429.568711 454.289268 481.061001 509.953468 541.038004 574.387862 610.078361 648.187050 688.793876 731.981371 777.834839 826.442554 877.895962 932.289885 989.722737 1050.296744 1114.118198 1181.297799 1251.951265 1326.200779 1404.179150 1486.042780 1572.013448 1662.516736 1758.632661 1864.092068 1985.034535 2056.797272 988.131682 984.286641 974.819092 961.053499 946.549323 931.741593 916.726909 901.539212 886.203719 870.741963 855.172775 839.512694 823.776309 807.976585 792.125163 776.232651 760.308888 744.363185 728.404556 712.441913 696.484252 680.540811 664.621218 648.735612 632.894753 617.110119 601.393980 585.759471 570.220645 554.792521 539.491119 524.333490 509.337741 494.523051 479.909683 465.518997 451.373450 437.496609 423.913143 410.648832 397.730566 385.186343 373.045269 361.337562 350.094548 339.348661 329.133447 319.483560 310.434768 302.023946 294.289082 287.269275 281.004732 275.536767 270.907802 267.161360 264.342060 262.495619 261.668839 261.909607 263.266886 265.790713 269.532190 274.543486 280.877833 288.589529 297.733943 308.367524 320.547819 334.333493 349.784361 366.961426 385.926924 406.744390 429.478723 454.196272 480.964934 509.854258 540.935577 574.282137 609.969252 648.074462 688.677708 731.861515 777.711178 826.314964 877.764311 932.154031 989.582522 1050.151981 1113.968623 1181.142908 1251.789792 1326.028994 1403.985295 1485.788814 1571.574837 1661.478926 1755.597134 1853.541863 1951.983102 2021.543025 2048.901230 988.431902 987.078682 982.155493 972.561711 960.161252 946.239426 931.637504 916.689377 901.523179 886.194961 870.735999 855.168158 839.508921 823.773180 807.974000 792.123065 776.231000 760.307660 744.362367 728.404143 712.441909 696.484668 680.541667 664.622536 648.737421 632.897087 617.113014 601.397476 585.763610 570.225473 554.798083 539.497462 524.340664 509.345794 494.532034 479.919646 465.529991 451.385527 437.509818 423.927536 410.664460 397.747480 385.204594 373.064909 361.358641 350.117117 339.372771 329.159148 319.510904 310.463804 302.054726 294.321657 287.303694 281.041045 275.575025 270.948053 267.203653 264.386445 262.542143 261.717551 261.960553 263.320112 265.846266 269.590115 274.603829 280.940638 288.654841 297.801807 308.437985 320.620922 334.409285 349.862890 367.042739 386.011074 406.831430 429.568711 454.289268 481.061001 509.953468 541.038004 574.387862 610.078361 648.187050 688.793876 731.981371 777.834838 826.442553 877.895958 932.289873 989.722698 1050.296614 1114.117775 1181.296421 1251.946766 1326.186091 1404.131206 1485.886268 1571.502505 1660.847906 1753.196808 1846.051246 1932.434665 2000.940872 2035.579270 2044.560662 2056.797272 2144.832358 2305.311525 2460.751542 2616.404574 2776.561393 2942.501614 3114.784180 3293.736086 3479.599676 3672.573034 3872.819832 4080.471762 4295.630489 4518.369582 4748.732632 4986.720054 5232.255439 5485.127290 5744.923397 6011.035035 6282.987910 6561.799099 6864.855785 7148.454245 7420.288446 7881.440285 8217.696047 8707.141994 9811.388991 10435.411190 10999.148297 12083.119931 12860.578207 13498.105778 13891.434602 14374.486742 15617.546227 16893.835629 17896.705282 18766.054133 19616.960551 20346.226083 20921.444768 21559.139713 22280.409336 23287.327812 24771.866605 25359.239957 24742.830547 24425.299983 2048.901230 2086.952139 2179.848108 2316.711946 2463.684836 2617.107478 2776.589685 2942.319367 3114.531648 3293.456895 3479.308155 3672.274645 3872.517331 4080.166986 4295.324852 4518.064295 4748.428948 4986.419271 5231.956916 5484.818229 5744.539146 6010.316106 6280.931480 6554.576894 6840.297277 7127.632941 7398.090497 7815.405046 8187.235076 8681.141502 9618.175742 10318.237220 10886.514716 11748.882230 12524.396820 13183.093937 13752.105278 14372.850359 15516.231006 16721.461668 17800.739596 18748.917894 19636.574458 20483.592284 21126.216693 21701.017442 22567.797869 23560.840442 24163.717323 24350.250800 24560.369563 25072.463466 25638.384178 2044.560662 2058.308614 2106.902652 2201.587020 2325.425912 2466.818300 2618.277073 2777.137398 2942.678912 3114.838755 3293.752887 3479.604847 3672.574620 3872.820299 4080.471837 4295.630290 4518.368796 4748.730013 4986.711403 5232.226744 5485.031683 5744.603670 6009.963214 6279.379987 6549.763098 6818.316488 7096.311330 7396.158403 7762.402886 8187.248284 8749.934478 9486.504875 10203.376889 10894.393365 11684.473822 12441.264914 13110.092193 13755.683372 14523.824788 15561.634442 16680.716462 17745.968777 18706.774194 19592.828316 20451.882606 21218.265515 21896.779224 22708.347413 23581.858443 24219.993244 24685.534574 25155.955866 25586.238653 25774.451541 25747.858209 10456.312200 10493.339984 13000.180560 13417.184256 14133.192589 13997.886604 14004.089581 18838.403771 16044.985684 14243.590296 19722.212946 20017.634668 20803.150463 21322.433231 21427.513006 21187.537439 22739.488157 23160.265201 26379.520608 25706.831579 13073.761396 17371.835005 12924.963972 17462.590296 15230.270575 14631.587482 15041.728930 18122.797662 18450.584915 18949.934359 19060.271325 21429.146821 21163.990054 22501.201966 21151.562960 21193.998705 25512.769274 25561.034062 26414.139492 26121.384090 15839.004906 17209.365059 13505.660637 19355.343313 15355.648815 17054.382575 17164.783016 22535.524439 20197.702061 20452.303778 20951.952388 21141.516129 20576.093848 21236.529980 22624.436565 23776.885156 25715.304967 23322.879475 25524.231120 26827.756809 18798.169102 20255.992628 15555.387760 17204.913851 17991.159341 21081.041388 15990.475274 20608.062799 20571.670094 22090.829264 21670.041927 25285.759323 21274.182940 22221.639000 21499.687173 27005.035346 24190.122307 23738.350734 23638.633279 23967.621685 19725.400959 21040.028141 16249.777409 17266.347826 21538.317599 19504.747981 16096.555646 20889.558050 19828.044693 16620.688603 22568.615187 21049.197749 21640.694752 22285.923251 21833.500497 23854.194885 21122.621596 23824.217401 23922.282111 23846.387128 13490.720093 18770.796679 15432.042771 15329.403660 16890.860048 18204.660074 19715.947631 22368.732710 19209.943794 19894.147827 21167.898646 23071.411279 18358.057330 18885.419540 22195.699485 22469.543813 22383.712524 24039.217114 23370.957504 24099.163199 19945.087246 17147.958257 19003.641697 19152.315372 15174.510161 21501.885365 21997.536224 21509.602538 20635.888113 17098.579254 21448.247300 21758.669297 23610.205477 23226.805836 21539.807980 21699.905883 22424.063930 24658.621308 24086.099719 24312.855285 18355.537710 14852.067468 16096.264410 18175.975139 18074.517235 16074.325968 17109.553443 19612.066718 20782.623611 18264.546861 22506.012909 20297.111065 22046.393719 22293.435766 22232.854830 22540.325016 22238.154322 23206.831671 24651.969372 24066.920902 14948.228960 14531.317027 16392.845627 13488.599648 18121.212064 15320.051896 19121.347908 15977.842886 16470.730411 17366.730882 16371.760868 19152.454553 19782.612916 21330.463934 21581.299630 19876.990837 22409.795091 20219.900178 24199.919808 24568.946630 14791.033654 15607.759386 20249.940589 15417.055489 15429.549352 17410.714533 14580.399431 14779.235817 17001.795559 21934.544195 20032.676714 19317.043682 20605.535609 20576.993469 20082.154443 21024.256849 24505.482452 23008.334025 20944.606592 24768.012805 18120.565182 18416.810456 15410.970017 17362.497493 18138.089342 20467.559329 16385.829207 16214.191094 19011.031827 19302.829091 17196.913865 22648.140459 19829.069410 23461.643268 21446.587421 22532.343565 20799.925597 23212.441412 25203.541092 23660.243872 13555.894249 13729.501676 15109.656121 17077.603173 15249.296191 16511.063851 15657.924794 14154.743394 15698.324861 22935.154387 20375.736439 15790.496768 20481.670493 19299.970690 19316.656966 24482.837021 22537.448159 21173.452168 23461.072707 24669.015973 15067.066536 14191.063470 14721.801150 16477.030512 15997.237368 14950.109753 15285.854215 16929.960945 16624.459700 16190.425324 14728.709525 21612.589455 15547.514134 21212.332769 21430.646746 20391.080426 23328.881702 23609.818213 24515.367140 24770.577306 12291.796706 13802.408344 15901.485384 13892.858866 15723.314471 17358.975501 15826.437008 17212.016713 14192.730505 19434.141108 18428.541671 19325.579907 23806.927142 21413.381072 21449.326652 22145.430903 24772.105322 23971.070966 24465.436731 24966.804053 16400.015165 13431.351104 13596.600264 14668.001665 15479.114560 17642.960794 15074.952157 18187.277189 19081.204593 16653.758849 20643.885323 17978.776476 21208.486646 22841.397885 22983.069966 17167.289253 20613.208775 25437.485575 23400.949153 25455.050323 13315.064096 12295.271902 12606.304107 13756.938572 16175.358683 19164.225295 14893.574719 13862.964757 17244.047865 14496.095244 17370.990097 15972.311899 22662.036093 22229.117031 23515.156852 22532.663141 20541.968178 24309.427782 21951.370389 25449.395858 17600.604934 13014.137911 12662.970619 13330.952195 15444.812167 15017.334298 15388.980021 17325.468683 16971.880190 16264.347107 14975.436471 21518.053826 19430.694888 22907.333906 18151.769231 22956.309220 19403.185673 22001.950633 25058.718010 25302.022154 11804.077989 12882.371242 12768.852327 12874.154188 13866.544864 14061.356423 15314.092669 14268.762692 16207.168595 15441.798774 21202.322538 16179.330499 16204.104837 16050.738059 22325.212843 19526.800971 21756.518747 24413.630733 23372.561974 24751.361020 9621.753936 12796.575202 12200.265500 12968.592054 13704.088741 13755.669929 14168.965649 15118.764470 18989.022556 20793.655734 18840.098401 19827.474608 24715.403487 19104.476878 23124.949708 23414.939395 24802.265239 23190.357507 22183.480778 23840.971836 12526.915349 12517.648519 12894.766064 13807.086412 14341.695535 13723.597452 12606.803886 18934.604838 16001.650685 15536.644614 19174.644188 16918.104430 24641.314745 22087.166413 24168.056915 22338.829743 25068.134405 25286.250158 24994.346958 23897.598699 9129.913860 11932.931028 13549.617541 12435.769984 13545.049138 13764.834711 14389.964469 15046.220554 16213.654115 17961.945749 16963.682870 16565.879159 18321.251935 23938.166754 18420.028219 20160.491607 22122.776408 22971.773939 23912.546699 25370.013797 10378.504418 13122.470087 12459.015955 13314.736669 15610.911481 14099.639391 14699.262394 16209.945010 14548.652300 14457.337871 21767.527794 23777.643012 22143.240764 22038.011451 23084.718751 18241.040202 21841.278989 21022.869075 25300.982741 25348.333238 14453.483236 12709.628928 15695.650771 12692.943714 13400.889229 12982.391981 15531.521714 14649.273025 17499.706935 18061.420787 16807.089677 21865.053405 18007.367030 23974.071854 15499.032865 23794.763026 23499.002255 24415.989262 25066.882972 25057.275761 13081.600306 12288.881553 12570.108155 13491.596764 14515.202302 12709.766302 16864.490471 15368.466505 14691.525110 18213.120871 21011.862881 20010.120287 21032.582582 22498.789048 24271.046639 24575.161832 23896.172340 24438.483142 23749.819917 25039.742902 15040.330603 13486.596039 12613.180391 13261.797228 15197.876263 13358.803096 13990.483947 16496.813296 13915.478565 15567.141189 15266.275541 20591.006065 15866.130030 16111.851640 21159.570886 24182.905813 25083.922104 23437.226973 23377.179145 24194.835982 13106.167514 12653.348760 14140.821196 12747.907224 14146.005268 12705.849715 13094.332996 15265.873178 15302.240241 17843.957176 16827.953334 17940.262594 21422.204463 20613.446556 15971.936756 22453.044219 23469.222834 22976.848075 24278.658868 25039.957923 9217.564816 12280.203355 14370.248882 13707.602727 15721.429297 15750.860756 14132.881035 14050.393317 14741.358483 16966.158508 16241.798446 17913.354748 17707.777284 19887.639175 23689.435236 23009.259426 24172.197055 23613.631364 24032.698791 12213.464555 13052.996690 12663.673806 12970.907306 13697.682995 13895.034884 13114.563295 16200.740476 18868.192042 15245.415488 16601.196794 19544.930713 22750.208178 16804.810537 21502.435577 24761.968321 24213.120818 21849.052738 23820.766162 12848.887116 12644.359474 13282.848539 12441.973421 14130.069195 14477.847240 12718.481230 14476.448804 16714.447802 17235.271650 18989.052322 16693.998932 21420.436150 16165.764070 22669.129571 24905.208417 22935.543395 23445.280327 23429.628059 11537.732134 12752.881432 12737.554086 12895.622466 13871.932882 13006.788513 17354.579857 16237.662730 15920.232472 18889.991097 17642.168643 16630.746029 17903.485685 19176.086795 20184.474860 19500.543750 21390.370138 22007.524621 23239.414839 12819.675708 13073.597940 13491.174767 13468.056847 12578.369904 12368.766217 15116.448821 14819.200190 13559.786717 14001.663713 16951.349188 13772.159216 20030.817143 17767.499559 17505.038880 22492.432088 22482.216981 22907.384491 11745.389215 12437.955392 12785.071821 12652.716264 13359.103815 12914.066365 15552.074324 14313.085360 18609.186952 16115.525307 17123.176933 20824.221424 18797.637239 21960.020151 21998.616586 22564.767902 21756.796115 22442.777882 9664.176261 12066.427829 12649.170437 14281.478628 12642.651195 16937.453147 12469.514881 16649.728114 14954.948316 17544.896861 19331.648031 21188.498641 17795.472233 22296.056718 17278.415094 22765.384762 24125.143030 11303.798351 12029.578595 12404.590366 12966.539712 12960.554412 13731.068375 18884.583488 12938.690370 13757.111514 17662.826203 15812.442732 20022.287926 23481.653762 20738.146256 18799.416182 21347.618184 21769.619203 12975.909999 13239.476383 13857.170665 12953.201668 19271.140170 21659.730281 16356.731999 17138.135615 16203.911338 21267.704762 16269.323616 22284.368610 21125.535339 22932.395411 21475.900789 20973.362554 21393.895835 21399.238593 13694.028822 12925.197006 18429.485690 12465.161476 12613.417701 12561.906877 13941.071346 16433.987671 19421.813989 20670.958850 22324.774103 19925.990002 22868.578947 21327.288500 21773.426652 20777.885471 12494.637588 12940.915306 14687.908009 13144.891043 12860.182312 18961.321035 15110.379403 18695.715380 20152.341350 13665.256276 20513.715122 20826.915684 21364.852749 20986.027273 15752.018547 20271.508268 12785.844535 12452.605533 12240.924162 15004.859200 21333.863755 19211.950253 18962.881485 16968.043897 18627.309498 15809.713531 16733.211070 21591.128285 20851.213313 22012.253446 21137.392045 20969.238263 13533.961207 11740.051191 13148.247786 18336.001107 14066.385875 14197.620166 19908.753949 13583.464522 13852.934131 20260.534041 18529.274206 22838.441418 21563.738112 21170.432287 20755.223715 11089.664641 11435.613563 12944.083365 12949.446442 15913.701635 12661.634721 14810.615939 18009.770904 21042.563611 20576.968722 19487.589158 21832.899452 19984.471871 16746.299647 20043.690544 13347.096131 9641.997256 11684.450839 12747.508855 14158.975999 16433.707503 12952.540595 18175.771604 22317.627632 16209.904148 22153.417801 17258.489235 21764.320560 20291.150265 19633.797928 10684.756124 13060.490568 11224.805232 13158.048213 14451.823713 14163.760750 15285.893199 16920.314613 16107.840725 15841.784618 21551.856352 22208.769773 21160.139435 19468.015013 14366.565096 11398.607046 12909.630733 20016.633740 18147.691584 14754.168926 13145.323889 17078.497636 17692.647097 20956.390969 20047.879448 15905.057800 20374.370239 19617.844644 13139.264950 8938.756529 13261.450721 13359.490023 19370.389269 13039.274010 20570.340883 17422.015541 14332.386142 14468.603632 19844.183056 19959.126224 17942.983549 19485.802939 9582.777697 17862.974201 12353.207516 15532.963908 17761.043010 17698.527663 21093.118721 16562.340466 18818.292196 18350.342848 21851.224532 18966.365575 18530.447912 18446.956785 13803.058059 13235.998336 16121.016546 11530.405142 17599.261265 13136.988108 19128.477233 19486.907002 20977.127448 20567.982033 20647.655865 17928.386161 13714.861637 15091.308390 20154.977285 15056.230109 17936.872606 20480.192138 18642.081312 13097.346167 19913.171833 18292.580363 20158.511649 17645.600488 17765.604785 15159.173599 13081.161163 13669.967754 17646.687170 12247.727670 18710.140192 13470.145355 17633.530092 18407.694359 18834.938401 16524.791492 17628.907599 13152.719139 13372.689708 14268.373202 11829.821188 11319.771253 14239.221977 16242.034259 20724.535327 15461.776903 19565.478001 17502.459433 17344.182217 13016.972038 12626.317004 11417.980345 19302.386630 11314.588624 19147.444679 20240.315819 17144.953085 19678.439243 19790.562924 18647.684201 17341.410526 17343.852351 7855.099329 16523.280606 15736.164339 19021.823933 15208.729568 14063.127780 15616.991762 22013.230174 20478.355946 18277.161090 20608.172968 16188.311985 9195.075296 13257.343570 14030.305624 19660.695781 19024.079215 18604.649575 9388.866261 20640.251842 13988.094868 16302.494840 10392.257205 13334.055883 13233.435276 13589.448692 9403.777580 18607.602991 16424.521832 19527.490754 16038.917163 18084.848107 16030.487329 12387.468174 16948.391490 13589.601213 15409.656732 16305.538833 13116.804004 15998.063876 18672.785474 18003.028958 15963.861518 13688.752818 14755.573681 12894.780666 16778.432578 17754.004925 17742.714185 16976.617164 20756.563800 21601.134270 18300.829747 1138.490056 8825.677064 7604.930639 16915.103643 13823.855354 17994.013749 14483.654811 20625.088697 18562.423521 15796.574519 5753.601418 15720.634338 15334.815362 14345.300593 18479.016483 16565.592320 18573.316043 19001.596419 15526.571329 10271.886368 10219.940971 15261.454426 13187.033800 15344.187875 20057.962702 16542.887793 13373.569271 15613.834598 10919.891671 10455.814340 15587.313889 16771.804513 19760.041667 19548.419654 19752.417020 19046.962690 15079.466085 12821.299281 15689.479566 15360.730650 15604.432045 14838.811908 15889.320935 15834.035965 21403.213443 7183.057880 10909.187161 9693.946668 15213.305128 19560.167038 15941.273313 12992.262192 16153.141899 3077.403030 15177.228897 14523.982957 15659.734506 13728.150765 14657.172684 19678.576325 13824.263038 10765.469517 9294.976258 14816.817368 15623.306696 16226.978917 18373.222631 14901.824912 11487.590034 13611.950496 12759.857079 12934.043039 19134.929325 15357.255717 13554.331580 13118.779465 11496.985449 17582.515176 6993.083028 15790.165876 16942.254127 13552.175300 13552.501728 8587.929654 15575.145929 17158.460198 13908.251014 12834.806238 16993.291538 1075.049196 14335.202482 15673.384932 19554.678627 14136.770392 19111.459407 11469.718509 16327.407234 13996.143367 13977.484973 14136.189683 12444.221052 1368.994861 15092.322550 14493.734539 18936.737066 12597.655015 10670.359810 15638.398719 14948.825988 15251.657663 18595.373714 7736.294749 12779.396606 12515.721141 8853.109845 12694.083052 11920.955183 11339.779130 12812.570557 14268.538446 11561.672224 6645.902302 13280.201352 14497.012268 1463.976446 12760.525978 11240.450602 10224.781582 13722.172935 14219.432076 15777.197149 10208.563706 13916.823355 7393.630594 9960.114437 12424.976149 13517.966919 9812.845287 13027.872527 16954.783096 8657.623422 8872.702739 14952.804465 9108.977688 14630.541038 8816.067976 8741.090702 12033.621729 14971.657390 13440.605591 13904.031546 12666.656078 12838.788652 12983.319434 14537.695394 12183.117381 15333.268315 7282.015374 14587.471063 8219.386053 8256.259783 13922.885940 11100.201344 13803.290926 12952.685801 13261.273782 13688.254826 14013.340189 14105.321199 14760.064305 13350.856276 18010.926789 15649.955968 13216.032122 13322.948365 13870.391532 14367.487423 14520.046706 10818.540676 13125.733126 15126.993341 16369.847580 13702.916496 18120.009421 18169.288550 15145.163760 13966.260493 13211.338290 11763.018961 13992.859400 13883.845322 13250.606811 12775.177873 12348.577415 10546.066129 13108.168752 13551.775586 16720.201594 12608.788920 13061.176348 17766.772027 18123.822683 15949.763368 12895.056907 13303.764060 14807.888331 15567.800221 12678.943668 13388.335076 15023.145151 13269.388107 13586.898157 14155.054460 14620.439115 16905.164833 16084.111578 13573.663394 13480.868342 12920.547496 16487.055517 14203.699617 20627.562436 13445.200442 13250.800424 12823.492044 13204.276363 12838.192823 12850.928435 14325.311038 13338.638408 16012.749779 14292.499386 13774.375194 13787.257120 15164.933025 16242.618732 13558.440305 13103.285341 12762.685673 12773.424288 12943.492142 12816.585687 12849.551361 13100.180795 15197.479049 14033.176709 14330.318231 14551.402338 14369.920061 14185.178045 14612.272064 17864.314693 12429.954746 13065.449552 13054.235990 14630.823722 13733.964666 13112.101026 13786.264671 13996.593224 16434.165420 13777.829147 13680.708751 13406.844116 14361.557326 13819.285544 17972.237085 13018.500797 12823.167221 12596.966763 13567.469685 13240.957939 13659.686838 14849.806639 13042.627051 14106.424664 17087.034464 13735.986333 14026.023723 14815.158817 14495.981465 14290.862783 12948.443175 13292.791475 13454.036766 12749.345118 14142.947593 14796.666672 13393.093428 14138.841806 12630.124775 13585.227074 14799.600918 14891.699274 14988.832952 18384.188324 17266.630731 14274.617421 12873.712502 13142.735955 13043.153387 13361.320940 13280.544855 12670.463453 14218.668295 15702.775972 16582.182441 14510.813445 13637.191900 14291.876076 13783.396623 16421.266477 13500.780111 12905.188773 13889.673864 13568.217657 13307.023515 14421.991123 13964.859882 15278.703307 13323.923755 13356.838299 13674.732592 14725.673532 15572.871337 13896.944507 14370.614657 13200.751151 13208.521754 12703.353552 13496.909600 13407.020071 13581.563567 13280.281942 13904.609224 13317.523834 12974.308226 13328.859942 14493.234058 13469.077953 13502.985008 13972.238479 12664.797078 13072.762391 13231.546544 13399.455152 13047.716281 13432.573397 13369.618069 12387.261368 13218.839906 2691.282233 11710.056287 12682.913125 12950.337304 14792.976269 13554.883072
</DataArray>
<DataArray type="Float64" Name="Velocity" NumberOfComponents="3" format="ascii">