<VTKFile type="PolyData">
<PolyData>
<Piece NumberOfPoints="2186" NumberOfVerts="2186" NumberOfLines="0" NumberOfStrips="0" NumberOfPolys="0">
<PointData>
<DataArray type="Float64" Name="Pressure" format="ascii">
 24870.131946 24554.959842 24690.378371 24367.453662 24512.467931 24342.818853 24524.299804 24725.050847 24598.543406 24602.732199 25119.647468 25463.651729 25494.052153 25352.945082 25242.233420 26005.277429 26196.740634 26216.756063 26085.110039 25935.990436 25741.124311 25841.301044 25397.564272 24778.616925 24764.936396 24659.014005 25513.367824 25451.978392 24976.457529 24711.761834 24640.272068 24701.542234 24742.558868 24824.184662 24930.286276 24996.705635 25063.698302 25354.899733 25864.122647 26299.580821 26488.960102 26049.155230 25958.428871 26397.504077 26832.402783 26730.769383 26491.164113 26375.300809 26132.695481 25867.987842 25548.709597 25260.423164 24925.594276 24785.578310 25314.223069 25410.254384 25569.333055 25590.741050 25539.536878 25582.032609 25473.661249 25226.485190 25042.412080 25104.137448 25337.364264 25534.952971 25667.978401 25773.445588 25890.216983 25958.641854 25988.411741 26029.018036 26107.592446 26078.066436 25968.263151 25945.125977 25996.779757 25967.513828 25826.585025 25643.104670 25294.262198 24920.977514 24810.896523 24659.014005 24239.885179 23660.987244 23465.690866 23461.895552 23353.339282 23033.841494 22657.455482 22275.713450 21828.199227 21534.647225 21355.352549 21127.590224 20693.857801 20398.718617 20321.566050 20199.774312 20023.262550 19822.136648 19770.129272 19560.371842 19125.856223 18566.706718 18048.525524 17628.247860 17393.282736 17099.304372 16961.871946 16664.980257 16461.230919 16453.817142 16293.498287 15961.597147 15519.494668 15243.419949 15185.579915 15101.277070 14817.909199 14489.500712 14356.423976 14216.176658 14016.024839 13885.105501 13708.146060 13225.815001 12779.019353 12669.711781 12517.986152 12385.397983 12266.852347 11887.673122 11440.865133 10972.086961 10839.470817 10647.062132 10248.869215 10185.283251 10227.862533 10035.683821 9893.129161 9755.035410 9523.801030 9303.965396 8860.550186 8285.916836 7963.921065 7590.394106 7517.951909 7616.685606 7697.897910 7479.416871 7085.862799 6574.378877 5911.201738 5100.431743 4273.124185 3648.124243 3310.022766 2935.418081 2474.468424 2223.452575 24785.578310 24608.342059 24181.404372 23848.090621 23627.083258 23491.946319 23298.487372 22976.413503 22656.750617 22347.861024 21887.635339 21481.366485 21329.826328 21192.224135 20814.089067 20352.665053 20072.765761 20062.365990 20163.900853 20151.821968 19796.230399 19220.789978 18579.433245 18031.442993 17664.107553 17402.014279 17211.236884 17073.278316 16797.940182 16605.933182 16526.533636 16367.918351 16057.346675 15685.653595 15420.600330 15287.536936 15131.905651 14852.334983 14561.584781 14330.821147 14139.902158 13974.994259 13840.277219 13609.659018 13202.074880 12912.572562 12673.858875 12487.222324 12413.490240 12261.402403 11909.598994 11497.218162 11167.651550 10942.294370 10670.468089 10386.152155 10227.699986 10182.529547 10075.527901 9829.009602 9561.448644 9347.693105 9034.090797 8599.314939 8274.522819 8062.389786 7824.794388 7616.628172 7600.456441 7623.731409 7398.732927 6944.975541 6386.946213 5684.265619 4879.944010 4163.674272 3633.906096 3207.120649 2798.852594 2428.683342 2278.677590 24810.896523 24701.401838 24360.640616 24048.368151 23824.113237 23618.893986 23398.055164 23115.614049 22768.254742 22396.934407 21998.519496 21617.309297 21343.560091 21172.260194 20991.053483 20776.195871 20567.050085 20329.467409 20066.956965 19790.135136 19511.492477 19220.182660 18906.109180 18569.531072 18218.769533 17859.679260 17538.321797 17273.885992 17012.684207 16749.908337 16522.325054 16320.294516 16116.539103 15903.303584 15724.033772 15600.140839 15442.680507 15176.647377 14861.989035 14581.091811 14341.663308 14115.346459 13881.232329 13631.283129 13352.056150 13090.652810 12869.261681 12675.164758 12522.545390 12393.639932 12204.737131 11919.505543 11568.581039 11212.899133 10906.758957 10646.690707 10436.246652 10286.850242 10150.747267 9965.835183 9731.185710 9475.777188 9193.143960 8869.509137 8542.592010 8255.916727 8008.161430 7796.297023 7651.104464 7558.282811 7413.174657 7119.190351 6657.980032 6052.506004 5352.812700 4649.685124 4028.011321 3512.203854 3077.111753 2698.797489 2409.030943 2313.222470 2223.452575 2037.728661 1761.795942 1560.435099 1433.331822 1334.448300 1234.341033 1158.042874 1101.512861 1067.367670 1054.460647 1049.596132 1048.225503 1045.821205 1042.881550 1039.491791 1035.603719 1031.158636 1026.112756 1020.439303 1014.123205 1007.146586 999.445901 990.730228 980.426874 974.103302 2278.677590 2185.507468 2026.271193 1808.776727 1614.210522 1466.455634 1357.295479 1267.723562 1189.757360 1127.736575 1084.555618 1062.257676 1053.220221 1050.011760 1047.360677 1044.573798 1041.498810 1038.025850 1034.075474 1029.592584 1024.542482 1018.907270 1012.682680 1005.875673 998.506574 990.642678 982.678404 977.125192 974.866741 2313.222470 2263.628533 2170.150280 2011.611714 1814.858096 1629.332482 1478.960943 1364.764921 1273.465880 1196.232176 1134.614624 1091.791389 1067.255114 1056.022556 1050.895622 1047.563383 1044.582550 1041.441395 1037.934046 1033.955119 1029.442839 1024.361477 1018.695192 1012.447620 1005.651256 998.403913 990.979254 984.036350 978.630177 975.964585 975.249149 974.103302 965.985963 951.287783 937.201246 923.297433 909.238381 894.960481 880.463957 865.767418 850.893793 835.866156 820.706518 805.435554 790.072615 774.635847 759.142342 743.608304 728.049214 712.480000 696.915195 681.369093 665.855899 650.389862 634.985403 619.657233 604.420461 589.290687 574.284091 559.417511 544.708506 530.175421 515.837438 501.714618 487.827943 474.199348 460.851747 447.809058 435.096223 422.739222 410.765088 399.201915 388.078869 377.426193 367.275209 357.658330 348.609051 340.161960 332.352736 325.218147 318.796054 313.125409 308.246254 304.199722 301.028038 298.774519 297.483576 297.200713 297.972537 299.846758 302.872200 307.098808 312.577660 319.360986 327.502183 337.055844 348.077777 360.625050 374.756020 390.530383 408.009224 427.255081 448.332002 471.305630 496.243279 523.214029 552.288827 583.540594 617.044348 652.877328 691.119139 731.851890 775.160360 821.132151 869.857869 921.431295 975.949566 1033.513359 1094.227074 1158.199015 1225.541584 1296.371542 1370.810495 1448.986210 1531.036675 1617.123260 1707.473877 1802.526983 1903.401607 2013.983281 2140.649951 2215.740377 974.866741 971.362088 962.775974 950.239374 936.925692 923.223637 909.223964 894.963106 880.470952 865.774971 850.900789 835.872303 820.711773 805.439944 790.076186 774.638642 759.144402 743.609660 728.049891 712.480015 696.914558 681.367810 665.853966 650.387270 634.982138 619.653278 604.415792 589.285277 574.277910 559.410525 544.700679 530.166715 515.827811 501.704028 487.816347 474.186699 460.838000 447.794165 435.080136 422.721894 410.746469 399.181957 388.057521 377.403406 367.250934 357.632516 348.581649 340.132921 332.322009 325.185683 318.761804 313.089324 308.208284 304.159819 300.986153 298.730604 297.437581 297.152591 297.922239 299.794236 302.817406 307.041691 312.518173 319.299078 327.437805 336.988944 348.008303 360.552948 374.681236 390.452859 407.928902 427.171898 448.245896 471.216533 496.151120 523.118734 552.190317 583.438786 616.939154 652.768655 691.006888 731.735957 775.040633 821.008514 869.730197 921.299457 975.813424 1033.372767 1094.081872 1158.049016 1225.386523 1296.210911 1370.642999 1448.807993 1530.835504 1616.859461 1707.017418 1801.444813 1900.232625 2002.962111 2106.135695 2179.016454 2207.705174 975.249149 974.001583 969.510288 960.776064 949.444794 936.646043 923.126315 909.185822 894.944329 880.458994 865.765893 850.893325 835.866012 820.706474 805.435541 790.072611 774.635846 759.142342 743.608304 728.049214 712.480000 696.915195 681.369093 665.855899 650.389862 634.985403 619.657233 604.420461 589.290687 574.284091 559.417511 544.708506 530.175421 515.837438 501.714618 487.827943 474.199348 460.851747 447.809058 435.096223 422.739222 410.765088 399.201915 388.078869 377.426193 367.275209 357.658330 348.609051 340.161960 332.352736 325.218147 318.796054 313.125409 308.246254 304.199722 301.028038 298.774519 297.483576 297.200713 297.972537 299.846758 302.872200 307.098808 312.577660 319.360986 327.502183 337.055844 348.077777 360.625050 374.756020 390.530383 408.009224 427.255081 448.332002 471.305630 496.243279 523.214029 552.288827 583.540594 617.044348 652.877328 691.119139 731.851890 775.160360 821.132151 869.857869 921.431294 975.949562 1033.513347 1094.227033 1158.198879 1225.541142 1296.370100 1370.805791 1448.970858 1530.986564 1616.959681 1706.939901 1800.783033 1897.721460 1995.132008 2085.708799 2157.522646 2193.849952 2203.284402 2215.740377 2307.370498 2474.211061 2635.520824 2796.706669 2962.152635 3133.111408 3310.094653 3493.387588 3683.206085 3879.738588 4083.150109 4293.570801 4511.076999 4735.670278 4967.262432 5205.678283 5450.692597 5702.121274 5959.994295 6224.868688 6498.489925 6785.465348 7107.654842 7414.228196 7699.659683 8199.059360 8527.520195 9020.103947 10025.867423 10573.121780 11189.134211 12227.385525 13052.539227 13892.032298 14475.454981 14886.692631 15732.843570 16688.689673 17667.237946 18575.305871 19429.809671 20326.988653 21205.622181 21937.579586 22261.515188 22535.950504 22811.480107 23647.625081 24494.302267 24870.131946 2207.705174 2247.275402 2343.886031 2486.105423 2638.595980 2797.460359 2962.206464 3132.948794 3309.861145 3493.127780 3682.933995 3879.459251 4082.866376 4293.285563 4510.793840 4735.393310 4966.995172 5205.420847 5450.434906 5701.824886 5959.537419 6223.864880 6495.628201 6776.125871 7079.991177 7386.321963 7671.937477 8114.919298 8483.927858 8951.956267 9839.118379 10473.371847 11058.247503 12052.489803 12926.463839 13721.353152 14407.491376 14881.492637 15649.839900 16629.997881 17615.012850 18532.592031 19424.135722 20347.585857 21278.514451 21977.136646 22284.160053 22606.708246 23177.883362 23890.628926 24643.472387 25330.577123 25513.367824 2203.284402 2217.573080 2268.102731 2366.539974 2495.178039 2641.846941 2798.659755 2962.753600 3133.296440 3310.151624 3493.405131 3683.211486 3879.740244 4083.150594 4293.570866 4511.076737 4735.669259 4967.258986 5205.666768 5450.654173 5701.993099 5959.566834 6223.444056 6493.734186 6769.734505 7051.086904 7345.501099 7655.813685 8033.068928 8452.271289 8986.115843 9690.592714 10385.837745 11115.414668 12011.455270 12868.065238 13621.621743 14304.550599 14944.702660 15729.378300 16627.210725 17539.559321 18415.166624 19266.431755 20126.635215 21024.726087 21892.497342 22648.969477 23382.710622 24178.011266 24811.935431 25226.769187 25437.105735 25381.365402 25314.223069 10585.948882 10616.228352 12940.343440 13347.031786 14383.221441 14622.140651 14626.895559 18659.096701 16165.876719 14340.356083 19518.841937 19903.402734 20892.782328 22196.229695 22231.579849 21385.506020 22575.104907 22632.764698 24067.430852 24800.599592 12795.056299 17020.326657 12985.726966 17443.805095 15364.365680 14673.611738 15067.111538 18196.974875 18274.748487 18674.711873 19170.926098 21237.833036 22580.079535 22560.415785 22638.579612 20811.760071 23211.164912 24161.559554 23590.689386 24306.385690 15568.363814 17482.726444 14131.927160 19213.329769 15079.290164 16846.337283 17311.906538 22500.726815 20177.464356 20133.087820 21090.367339 21364.544913 20701.601343 21620.334203 22795.864797 23819.834913 24250.289005 23549.891105 24347.144081 24779.251583 19026.216468 20146.277088 15851.057470 16954.201865 17569.178959 21713.255714 15922.995313 20188.828564 20397.167911 21792.279634 21605.976314 24829.878988 22596.116263 22366.758426 21203.066021 24621.189431 23908.901223 23668.983357 24313.191198 24453.522943 19725.719140 21570.029688 16481.675825 17176.093202 21603.282143 19284.969987 15961.086436 20906.368284 20103.445116 16250.870238 22671.583787 20882.285097 21281.336352 22427.643512 21604.690327 23519.974285 21508.388551 23894.934887 23762.460612 24403.268257 13823.400317 18626.482467 15223.314883 15201.189903 16706.663844 17748.975763 19580.344587 22411.003087 19316.354685 19544.600605 20866.826985 23739.432837 18415.677112 18783.245166 22333.811375 23000.273741 22549.113452 24485.437761 23878.410451 24631.999053 19652.832091 16775.877877 18601.503156 18482.469463 15404.559698 21277.407776 21643.533841 21131.172886 20476.701842 16942.565399 21707.767515 22128.430096 22541.056205 23403.909368 21115.426133 21854.843522 22994.009638 24231.659781 24391.132023 24633.254783 18250.086054 14735.474064 16186.411257 17949.609737 17678.767193 16082.926593 16904.938940 19833.843634 20733.810169 17852.730264 22793.276697 19989.207087 21774.016689 22547.941205 22442.112866 22633.294501 22295.231700 24022.012360 22723.866615 24308.643285 15539.990379 14700.038293 16314.505218 13869.370875 17957.401218 15677.412883 18628.987715 15789.122612 16238.809685 17070.705463 16190.155082 18961.229005 20042.905888 21162.100512 21684.297581 19702.754989 22759.372979 20158.722253 23986.537174 24001.323341 15019.694263 15581.775467 20133.190669 15467.804218 15931.768345 17456.999861 15041.618597 15188.361768 16618.900333 22284.235059 19988.737127 19091.289656 20631.337668 20322.779298 19994.941998 20916.133039 22645.271726 23390.590053 20891.899793 24070.433087 18120.070740 18474.511046 15659.462740 17407.115888 18356.305173 20344.138330 16731.264297 16505.276564 18848.021913 19060.741772 17097.593815 22952.943123 19503.036545 22888.606401 21080.668574 22574.546813 20730.331619 22521.241075 24624.841686 23136.077935 13907.152607 13735.214108 15233.589005 17007.137860 15135.452944 16713.171792 15734.287653 14432.485643 15993.608069 23124.886524 20189.389895 16174.757745 20479.078784 19086.865400 18799.021675 22669.948000 22931.224640 21047.906574 22455.281064 24260.814410 14944.145945 14111.296064 14768.535740 16615.526043 16084.511148 14870.316541 15539.186941 17492.793795 16903.333740 16598.841102 14959.001207 21320.161345 15981.816465 21219.544281 21135.096026 20158.251646 22681.725935 23351.957423 24315.988375 24036.409399 13081.792849 13405.740073 15985.016088 13687.279718 15977.259610 17633.063992 16129.688902 17326.333223 14509.377022 19188.626916 18269.531661 19239.266696 23657.342293 20929.561243 21103.626298 22237.178971 24229.284913 22893.799139 22404.952226 24490.312883 17225.122936 12882.181404 13848.085088 14367.004937 15704.733972 17473.599814 14949.963776 18332.346537 19338.875471 16877.113401 20377.235318 17696.112879 21091.350464 23184.749462 23172.719666 17269.476658 20312.878294 25036.747845 22727.970650 25402.247467 13502.481389 13217.661646 12622.958470 13443.366811 16487.693841 19050.132009 14693.948271 13993.905081 17546.239896 14481.985005 17527.963947 16124.802855 22995.831398 22166.010037 23365.540952 22926.408469 20042.601286 23903.163260 22285.792993 25191.327953 17516.548119 13349.462583 12734.193533 13784.918504 15239.772835 14785.384099 15114.470092 17446.842670 17287.010667 16390.996628 14854.703812 21264.428482 19436.440678 23168.795456 18321.216501 23278.775346 19519.909993 22203.090900 24922.305959 25194.940053 10997.653186 12224.077112 12671.699478 12943.150872 13058.754374 13841.412143 15354.811223 14077.115227 15798.193988 15264.087587 20952.461311 16358.603058 16531.931896 16146.199288 22326.189319 19576.706646 22176.801300 23899.186726 23437.540179 25099.566741 10963.021986 12277.146637 13311.727812 13369.930398 13308.334785 13322.335534 14090.440325 14649.927603 19049.408651 20939.294610 18787.526340 19790.955325 24210.758678 19299.262515 22831.731708 23397.347145 24181.335393 22475.496243 22221.058083 23668.400314 12698.308044 12397.001346 12606.777240 13177.565809 13824.474513 13026.391847 13107.310438 18895.115345 15970.256087 15343.793624 19120.478547 17309.380666 23416.409616 22115.454541 23979.720952 23286.725927 23561.099486 25158.817488 24945.588117 22870.045999 9930.764307 11009.950633 13506.052606 13251.238780 12669.733095 13870.464341 13916.005522 14716.127619 15954.589465 18108.301512 16950.854148 16713.991220 18410.015242 23059.906443 18492.373003 20159.864235 22079.615337 23048.170412 23133.340235 24783.120744 10149.787119 11926.693409 12963.690044 12462.099100 15128.796741 13665.712015 14528.650104 15218.156356 14215.296076 14518.862734 21563.089303 23311.709473 21896.849853 21792.480528 22483.908182 18293.338716 22505.445154 20943.020366 24620.302705 24659.011020 14490.353553 13092.940377 15648.806762 13332.820453 13635.036806 13335.177763 14699.191981 14505.583377 18132.785468 18162.393626 16958.714560 21655.285996 18065.555877 22627.373186 15451.570758 23424.898522 23679.717235 24046.296212 25016.991515 24368.829836 12016.276409 13305.214256 12786.453003 12790.470582 14013.832025 13353.650493 16845.598926 15321.472153 14147.507771 18225.950764 20636.990996 19924.200969 20767.128594 22087.699144 23810.634742 23603.320336 23441.296059 24067.484266 23480.370879 24773.118173 14824.144690 13213.598457 12123.598529 12874.299556 15144.787013 13519.939637 13856.987877 16577.377584 13996.313872 15244.073224 15288.196317 20589.828693 15763.380479 16155.438864 23301.644381 22805.214422 23464.397362 23382.763574 23455.641869 23606.126833 13190.930349 12742.700753 13684.933679 12616.471298 14008.810971 12978.084112 13544.200066 14865.237893 14530.163115 17579.722382 16687.942901 17486.497867 21832.535348 20454.034851 16072.870065 22100.458946 23426.661747 22701.698959 24025.174297 24773.292515 6155.695012 11759.234209 13874.381859 13531.443241 15499.478965 15626.598233 13534.165407 13741.820166 14361.355053 17189.358222 15842.608672 17794.823747 17593.799824 19902.865291 22624.717068 22795.484297 22914.443912 23444.095058 23513.869893 11630.677335 12340.583947 12647.920113 12607.888852 13925.515115 14126.638123 13211.116144 16105.355397 18760.442295 15236.008401 16747.210019 19351.802522 22556.173157 16380.124229 23273.293222 23388.096020 23320.151945 21671.114632 23410.824979 10725.036906 11869.003661 13541.211869 12963.204486 14091.464754 14180.386978 12865.777267 14287.518287 15913.118384 17367.778388 18971.044545 16598.069808 21287.190945 16038.265090 21994.161352 23390.371995 22387.483561 22546.223747 23294.902899 11910.681394 12622.063691 12998.582662 12631.501357 13744.610503 13204.459748 16957.341816 16310.351441 15967.988034 18935.558592 17684.101217 16720.007156 18152.772417 18874.010120 19995.312571 19490.282618 21319.029632 21934.385087 23031.685388 12583.685726 12398.703717 13502.010962 13341.707154 13219.233792 12294.718330 14565.938131 14701.516113 13722.279314 14236.245795 16820.941121 13751.452823 19543.196124 17596.844660 17656.551494 23296.421329 22047.867857 22661.382458 11444.332992 12417.152694 12502.284746 12726.595992 13418.433531 13109.220829 15301.452851 14037.598209 18452.216149 15816.046913 16664.392119 20407.299844 18876.316337 21838.617236 21696.307601 21982.937644 21505.896578 22093.357770 10812.874152 11965.495022 12655.120478 14262.106972 12901.669492 16587.139016 12554.066606 16082.082367 14596.308695 16975.060595 19599.253755 20475.750586 17908.351084 21776.696787 17425.500490 22586.037976 22808.598671 11482.177290 12163.239274 12118.050542 12610.859859 12789.705679 13673.827637 19004.081494 13208.112100 13705.279589 17272.839126 15022.919615 19583.328501 23377.531768 20653.150025 18815.521145 21227.151138 21579.309839 12502.646358 12132.654296 13687.299787 12330.060054 19299.060444 20956.695371 16128.887307 17005.488444 15688.449178 23026.880554 15415.801937 21851.851181 20929.192502 22212.199518 20844.205077 20297.071544 21338.137267 21340.734733 14002.095165 13088.086281 18693.228862 12200.590171 12826.513241 12651.105918 13721.426053 16095.121758 19094.106361 19898.782316 21423.790696 19805.070212 22145.473736 20581.103900 21328.695577 20581.706580 12448.065098 11546.775993 14542.442338 12850.932220 13217.507553 18642.212072 14915.916809 18603.432239 20034.609539 13637.845451 20533.660097 20889.121350 22409.917209 20175.334016 15455.540912 20189.318046 12104.401357 10823.837860 11370.909467 15207.869933 22002.073013 19281.094243 18877.971113 16567.616896 18585.267489 15370.530369 16764.419840 21456.037993 20338.755105 21653.518045 23140.007695 20180.898024 13055.537059 10830.926500 12815.385234 18299.729639 13526.596519 14278.682956 19840.755046 13291.516228 13449.598615 20194.186917 18386.082974 21975.823319 21267.478078 22593.914003 20277.962201 10359.996709 10797.970569 12987.749919 11157.945773 15416.823516 12671.360666 14550.355008 17835.148779 20792.421148 20331.744939 19493.186476 22628.229980 20005.642129 16658.629907 20061.076003 13094.876675 6843.860361 10895.544587 11485.416941 13938.319837 16191.811764 12703.180759 17369.482972 21450.978973 16215.625339 22558.348189 16679.066346 21350.607272 20254.144341 19762.785156 11256.368393 11778.785925 11338.203989 11417.502984 14376.696065 14063.254012 15606.278374 16735.022775 15517.356032 16202.480982 21222.621078 22614.227776 20795.901324 19377.645518 14499.303618 10594.829452 12888.272714 20206.694841 17440.069531 14898.755256 12780.429306 16452.142208 16832.208036 20807.437581 20137.330291 15981.804903 20287.951686 19162.713359 12508.739711 9462.964466 13153.701463 13331.992206 19111.603516 12944.390878 19916.538486 16714.443113 14208.810467 14675.081746 19716.001450 19778.085716 17372.423537 18939.485018 10085.040381 17443.895979 11091.935955 15737.345428 17451.456432 17365.792515 20753.467978 16551.174271 18706.994893 18289.070013 21550.730462 18693.275527 18511.518774 17728.045202 13642.125852 13380.214513 15942.918010 10477.785212 17450.187706 12405.527037 18738.835319 19573.698786 20742.818456 20479.964943 20206.325938 18231.577654 13825.645032 15157.816476 19904.199094 14921.378386 17584.717610 19516.203394 19160.538920 12125.640982 19822.915164 18094.899147 20267.808831 17657.101456 17931.161456 15230.632699 13422.956804 13562.455992 18352.357815 11390.394017 18202.357754 13300.722957 17654.351226 17964.298260 18305.885503 16375.773379 17255.374998 13166.518669 13634.208246 14290.375559 11629.828084 10993.069810 14045.946018 16176.436761 20599.410742 14982.491501 19428.504854 17456.472089 17044.172191 13416.475236 11729.682564 11092.699219 19223.165834 9979.155689 20309.200738 19219.229023 16948.366407 18977.977301 19548.544262 18481.659802 17043.053241 17043.721829 6717.585502 16569.295462 15548.010867 18111.818890 15286.653129 13888.580264 15863.293164 21585.251821 19592.011572 18098.173842 19879.715619 16460.654226 8748.479676 13551.224873 14517.105979 19559.265945 20189.649474 17741.683942 8345.201047 20709.086667 14011.715042 16252.835115 10402.886314 12990.031318 12387.784149 13220.043153 7343.507490 19420.280267 16800.662751 19500.391820 16194.409847 18018.054191 16218.120962 12149.217805 17382.422703 14063.105390 15852.295368 16421.810726 12474.670843 16235.601538 18155.576893 17661.272023 15980.924767 13432.574047 14501.327408 12329.323798 18175.539185 17504.600423 17350.986701 16412.852863 20561.382661 21207.898863 18164.644514 1143.710423 10418.601753 6599.252125 18054.290896 14412.485829 18027.598945 14702.239100 20779.294290 18688.379903 15410.950125 4768.902843 15477.568376 15211.178814 14203.280059 18846.247713 17045.183363 18979.984075 19391.373350 15311.708415 10918.944891 10253.647175 15551.676693 12928.402796 15163.604428 20091.569073 16113.690785 13013.884263 15479.055727 11324.168036 10198.487907 15428.977137 16390.795356 19206.096838 17927.236987 19801.800319 18536.727492 14996.614043 12403.544496 15473.763227 15279.236686 15677.969844 14905.597506 16156.797216 15783.936176 21165.503489 6662.227139 10981.877025 10665.630575 15092.303854 19133.965278 16159.618984 13112.530942 16563.897781 3563.971020 15427.550987 14636.359410 15753.756348 13861.916761 15030.122178 19032.040823 14352.766954 11247.145628 5852.296508 15281.369838 15359.336545 15984.837219 18160.191299 14952.489665 11398.342963 13735.804058 12559.969688 12598.461159 18109.991201 15671.409878 13818.492546 13061.983451 11655.810891 18314.158674 5647.589515 15503.573448 17115.391627 13816.807163 13817.669874 8820.068523 15335.980462 16671.533514 14405.821834 12891.368709 17382.069392 1068.597721 13977.079197 16101.705109 17934.436246 14307.252494 19045.402332 11721.900453 17053.187977 14462.733844 14118.232357 13948.102555 12769.774248 1426.398177 15020.014611 14599.259008 18289.444153 12550.534649 10543.054418 15879.851425 14756.799484 15037.832875 17772.561177 7102.731760 13170.861865 12787.695348 10276.672036 12256.768361 11870.157128 11583.782343 12637.824851 14226.497658 11424.301775 7436.037138 12494.010765 14458.064415 1538.205084 12695.910418 11445.730056 10885.474585 13450.871696 14531.200927 15433.525200 10870.921242 13832.984221 6671.749642 10394.546510 12242.447282 13873.256758 10254.627709 12193.018520 17274.452389 7914.000576 10292.497740 15042.009011 9950.880034 14838.297925 9574.993070 9466.837547 12293.056098 15396.788520 13625.917732 14226.413543 12499.363338 12536.416581 12777.049149 14685.894064 12347.212284 15577.123471 7541.337850 14745.442568 8526.125110 8557.539540 13895.183487 11504.631307 14064.570822 12678.035515 13134.858782 13791.144235 14327.799058 14198.196471 14865.660536 13157.601752 17860.951045 15777.187918 13504.935856 13037.745758 14417.606202 14524.606228 14705.604283 11126.998453 13807.942589 15326.415421 16280.208856 13514.787257 17781.452619 18269.286564 15401.362990 14069.247521 13785.858028 11881.257079 14112.499582 13986.738763 13379.051371 13094.584817 12069.138195 10578.446305 13084.631034 13886.761979 16565.289801 12713.897968 13625.126067 17590.812639 18236.025873 15736.966231 13169.511466 13703.905340 14995.777518 15725.583948 12487.299923 13796.777004 14923.967119 13844.570675 14052.946596 14191.052195 14796.252393 16713.439450 15593.349402 13696.960437 13580.221505 13594.746648 16564.423841 14443.387589 20431.949954 13708.214439 13833.996533 12570.769071 13509.239591 13224.027086 12839.344448 14647.475663 13466.838775 16037.158085 14723.686197 14182.515130 14261.661032 15531.148669 16032.833920 13435.761076 13212.089917 13351.759954 13282.240008 13370.333842 13482.966417 13323.638097 13471.166966 15336.060178 14672.707844 14838.776631 15155.265755 14375.185302 14867.258907 14932.665718 17443.402116 12712.709395 13672.788204 13465.767186 14677.101502 13920.041171 13405.578109 14297.300933 14406.941330 16612.473294 14324.788275 13525.165835 14054.522277 14269.732018 14234.176809 17806.110267 13309.401364 13400.791093 13179.697229 13716.399015 13444.898609 13742.628357 15047.226359 13246.510955 14087.533777 17266.584105 13934.857733 14242.340825 15115.257191 15109.005161 14643.129282 12975.955748 13471.020521 13874.760803 13287.613752 13910.905666 15072.734373 13609.731619 14291.350448 13192.654142 13522.495498 14642.264906 15418.218941 15471.692470 18266.580973 17053.581311 14815.080732 13455.136795 13626.170310 13558.676828 13877.816165 13804.711868 13196.959692 14079.817959 15826.651179 16697.679437 14494.325818 13914.870989 14239.719069 13722.799372 16482.051811 13725.514762 13288.766859 13918.862934 13781.731671 13881.266404 14350.745611 13446.699191 15609.337794 13457.951953 13477.146429 13720.580291 14640.552152 15265.359155 13939.720891 14433.163434 13405.012331 13644.238649 13194.489020 13594.358041 13575.445522 13171.421540 13543.021926 13422.509251 12519.742492 12363.867361 13805.829279 14088.786515 13358.496701 13317.439064 14061.419953 13327.774829 13808.315596 13118.880567 13380.475407 12508.453458 13570.373189 13361.638155 12170.683646 12725.048750 3131.710814 11493.542968 13167.596420 10677.681790 14504.819421 13011.063632
</DataArray>
<DataArray type="Float64" Name="Velocity" NumberOfComponents="3" format="ascii">