<VTKFile type="PolyData">
<PolyData>
<Piece NumberOfPoints="2186" NumberOfVerts="2186" NumberOfLines="0" NumberOfStrips="0" NumberOfPolys="0">
<PointData>
<DataArray type="Float64" Name="Pressure" format="ascii">
 30181.107184 30420.513561 30833.452432 30886.140958 30536.235525 30770.833245 30795.775959 30445.346614 29788.803075 29789.888061 30322.211737 30723.642689 30389.598244 30110.828442 29725.507754 29764.093855 29607.510527 29497.491079 29972.944931 30462.953920 30458.699673 29926.263188 29200.544388 28746.228596 28579.094280 28795.066793 29854.796281 30189.134187 30556.993977 30718.540992 30743.895989 30913.318784 31314.562638 31388.525314 31001.070193 30471.983172 30236.857967 30294.734999 30617.539455 30800.495703 30770.734802 30683.661228 30534.446418 30146.478701 29847.439294 30095.690329 30615.568265 30665.822934 30289.634600 29893.324903 29469.327247 29039.227956 28869.123972 28935.033658 29708.585220 29772.766010 29985.778291 30306.461169 30508.862777 30618.701779 30801.664483 30960.706987 30960.307875 30752.253511 30539.505733 30491.635586 30608.493646 30755.967717 30776.744510 30664.526144 30580.955906 30485.244059 30328.928551 30272.453123 30411.977688 30604.517940 30610.317911 30398.326392 30093.405199 29698.144186 29307.377557 29099.459666 29058.784736 28795.066793 29172.749852 29454.046804 29563.901377 29581.846466 29099.113449 28380.419474 27589.665657 27186.511166 26883.339501 26971.830573 26708.735299 25811.932666 25520.943286 25560.658120 24887.079310 24409.078608 24494.131639 24088.966594 22906.353792 22039.307264 22084.755723 21884.881518 20950.211882 19959.508296 19309.716222 18802.720092 18398.750817 17985.543214 18364.200495 18624.257293 18276.771885 17376.472833 16771.596658 17123.201291 17515.208353 17012.570196 15521.062755 13528.804736 12246.927122 11273.257139 10574.994107 10254.961476 10380.663715 10108.474770 8743.352039 5432.401267 1530.708549 1212.130470 3960.454923 5628.803521 4376.310447 3391.090165 1282.814313 295.246237 2706.737156 4588.717644 5430.054767 4594.191642 3968.653559 3427.146685 3333.952184 3133.164420 2381.980341 2560.941520 3212.360738 3387.327294 2351.002001 1211.253402 1812.265341 2134.944095 3034.543306 3398.696837 3069.895699 3566.374363 3304.339320 3211.714831 3709.472050 4251.278890 4859.329591 5015.636039 28935.033658 29069.571542 29477.535740 29817.537118 29742.753978 29231.764261 28514.223097 27830.878070 27411.622217 27211.168989 27132.775840 26990.845991 26562.738241 26176.101529 25836.334279 25284.805422 24954.450588 24798.641303 24321.875854 23551.176804 22776.988277 22237.926822 21811.432514 21153.658076 20493.638735 19889.807746 19198.455140 18682.950913 18364.076012 18357.853057 18051.811680 17253.362992 16629.285346 16318.375776 16226.747513 15993.202271 15344.251292 14232.139007 13015.720687 11801.380282 10866.141369 10398.021704 10186.048024 10168.814379 9843.371113 8575.305904 6243.790465 3644.714310 2761.162464 3479.353318 3953.775253 4066.529798 3302.105736 2036.476705 1692.260852 3219.212523 4738.013389 4563.823727 4041.084774 3959.372586 3900.575642 3877.003755 3870.147230 3636.758400 3578.060634 3623.387567 3268.866476 2496.695894 1948.217118 2304.977669 3154.746126 3601.464936 3836.868684 4124.473268 4296.386915 4346.966162 4419.087448 4658.369238 4909.632935 5058.906042 5106.308141 29058.784736 29065.040056 29260.029800 29528.967651 29558.132965 29250.884689 28745.444211 28188.647053 27696.974582 27365.375143 27127.628627 26869.594127 26508.561684 26061.376457 25582.098590 25157.560207 24886.727206 24705.910483 24395.330163 23876.723997 23272.384843 22659.638994 22058.880650 21438.859291 20802.257830 20213.642926 19693.568665 19243.032469 18848.573614 18487.094155 18044.088662 17350.132480 16597.563540 16032.064037 15569.992223 15116.654041 14504.949837 13668.027573 12763.656327 11865.513321 11095.288475 10588.529050 10278.985567 9963.062569 9453.900190 8598.635464 7347.102513 5837.745589 4622.860107 4137.103539 4173.255837 4300.422694 4159.007257 3730.032346 3385.301114 3520.561912 4020.641462 4272.240423 4144.200329 4019.033668 4041.594873 4115.599163 4168.291868 4162.489415 4104.694420 4012.693211 3798.934670 3404.525351 2994.268340 2868.390236 3165.801115 3676.184928 4155.749907 4568.303932 4870.593580 4996.464471 5001.932083 5000.728110 5039.891160 5096.480780 5141.366261 5153.359247 5015.636039 4911.401483 4672.403524 4465.134188 4337.082710 4254.982266 4147.575963 4031.903948 3934.305536 3889.459310 3919.532585 3935.995087 3907.716994 3840.714029 3741.739240 3615.703857 3466.971968 3299.673259 3117.713977 2924.731478 2724.013489 2518.278256 2308.949543 2092.766965 1863.505292 1733.965353 5106.308141 5043.601380 4927.410407 4736.793064 4541.704464 4395.092660 4297.493997 4206.953280 4103.520786 4011.663119 3954.843740 3945.130574 3948.501718 3930.658225 3880.208008 3799.099126 3690.968943 3559.576958 3408.665234 3241.857387 3062.595207 2874.101562 2679.363686 2481.136535 2282.036229 2085.214641 1899.716618 1774.635537 1721.216252 5153.359247 5123.353056 5054.482547 4929.871826 4754.877846 4572.413421 4425.044972 4318.838101 4224.558530 4126.844673 4041.487715 3987.804179 3967.279871 3957.807295 3932.469995 3879.219579 3796.930037 3687.990169 3555.852893 3404.198013 3236.654306 3056.693712 2867.602383 2672.529560 2474.710747 2278.178868 2089.805965 1922.884458 1796.573842 1732.537478 1713.497381 1733.965353 1626.420850 1447.090518 1293.427178 1156.602200 1031.360160 916.267294 810.747659 714.424515 626.929706 547.857294 476.759459 413.154428 356.537168 306.389989 262.192171 223.428349 189.595606 160.209291 134.807631 112.955204 94.245394 78.301903 64.779463 53.363844 43.771276 35.747403 29.065863 23.526594 18.953959 15.194747 12.116138 9.603669 7.559248 5.899262 4.552781 3.459897 2.570191 1.841353 1.237924 0.730191 0.293201 -0.094099 -0.449613 -0.788746 -1.124963 -1.470265 -1.835602 -2.231218 -2.666944 -3.152451 -3.697459 -4.311910 -5.006122 -5.790906 -6.677674 -7.678513 -8.806259 -10.074538 -11.497809 -13.091378 -14.871412 -16.854932 -19.059800 -21.504693 -24.209067 -27.193114 -30.477706 -34.084338 -38.035063 -42.352422 -47.059372 -52.179209 -57.735493 -63.751966 -70.252472 -77.260867 -84.800919 -92.896206 -101.569982 -110.845027 -120.743460 -131.286518 -142.494277 -154.385334 -166.976424 -180.281984 -194.313681 -209.079905 -224.585272 -240.830181 -257.810525 -275.517717 -293.939515 -313.062915 -332.883259 -353.433300 -374.875650 -397.912634 -423.656203 -438.630616 1721.216252 1680.663724 1576.669396 1431.128570 1288.723880 1154.893313 1030.546723 915.729581 810.302321 714.018113 626.547847 547.497063 476.421033 412.838543 356.244386 306.120515 261.945842 223.204670 189.393806 160.028378 134.646441 112.812455 94.119725 78.191917 64.683757 53.281038 43.700034 35.686454 29.014010 23.482727 18.917056 15.163880 12.090472 9.582457 7.541833 5.885067 4.541304 3.450706 2.562919 1.835687 1.233604 0.727001 0.290965 -0.095524 -0.450341 -0.788865 -1.124538 -1.469344 -1.834216 -2.229386 -2.664672 -3.149738 -3.694293 -4.308275 -5.001994 -5.786258 -6.672474 -7.672728 -8.799852 -10.067472 -11.490044 -13.082875 -14.862131 -16.844834 -19.048849 -21.492852 -24.196304 -27.179396 -30.463004 -34.068626 -38.018319 -42.334627 -47.040509 -52.159267 -57.714462 -63.729841 -70.229252 -77.236553 -84.775521 -92.869737 -101.542462 -110.816485 -120.713935 -131.256060 -142.462953 -154.353227 -166.943636 -180.248641 -194.279929 -209.045908 -224.551203 -240.796183 -257.776593 -275.483340 -293.902507 -313.015647 -332.800280 -353.229668 -374.265507 -395.766728 -416.992183 -431.849110 -437.765837 1713.497381 1700.623944 1649.126081 1547.178925 1419.922089 1285.221542 1154.077868 1030.585583 916.029483 810.674639 714.402090 626.922818 547.855178 476.758809 413.154228 356.537106 306.389970 262.192165 223.428348 189.595606 160.209291 134.807631 112.955204 94.245394 78.301903 64.779463 53.363844 43.771276 35.747403 29.065863 23.526594 18.953959 15.194747 12.116138 9.603669 7.559248 5.899262 4.552781 3.459897 2.570191 1.841353 1.237924 0.730191 0.293201 -0.094099 -0.449613 -0.788746 -1.124963 -1.470265 -1.835602 -2.231218 -2.666944 -3.152451 -3.697459 -4.311910 -5.006122 -5.790906 -6.677674 -7.678513 -8.806259 -10.074538 -11.497809 -13.091378 -14.871412 -16.854932 -19.059800 -21.504693 -24.209067 -27.193114 -30.477706 -34.084338 -38.035063 -42.352422 -47.059372 -52.179209 -57.735493 -63.751966 -70.252472 -77.260867 -84.800919 -92.896206 -101.569982 -110.845027 -120.743460 -131.286518 -142.494277 -154.385334 -166.976423 -180.281982 -194.313673 -209.079878 -224.585183 -240.829893 -257.809586 -275.514660 -293.929562 -313.030514 -332.777798 -353.089922 -373.761010 -394.223196 -413.004625 -427.777742 -435.288164 -437.288118 -438.630616 -455.346770 -485.193423 -513.253866 -540.486973 -567.650877 -595.039218 -622.758859 -650.114516 -674.369826 -689.745710 -691.711866 -708.328511 -871.904980 -1203.080244 -1179.797786 -1070.852556 -478.829995 -165.512561 -517.226539 -942.808646 -1039.389145 125.724948 561.919190 1857.158698 2607.972604 2729.979004 3017.255266 3598.995861 5039.469340 6568.903169 8017.543536 9363.100078 10235.802445 11164.312510 12109.432485 13255.453997 14774.834531 16502.890955 18317.041787 19788.031757 20904.355261 22187.163992 23638.566358 25034.335127 26195.895820 26742.463391 27496.580649 28381.009199 29610.293049 30181.107184 -437.765837 -444.850083 -462.202755 -487.421120 -513.855404 -540.661057 -567.692569 -595.043059 -622.801323 -650.371868 -675.187728 -691.563706 -692.807914 -689.253890 -749.696348 -938.540869 -966.443790 -603.931831 -250.018120 -309.230048 -513.268305 -720.878055 -870.175862 -351.090843 855.435511 1854.920985 2261.503030 2729.478646 3399.008536 4210.517609 5357.190833 6757.320636 8100.051617 9265.678898 10245.832826 11186.535765 12277.343713 13590.451040 15044.224036 16603.370783 18194.918361 19553.280952 20710.810416 21922.965703 23357.963954 24903.236378 26031.100223 26711.559631 27547.335472 28488.686508 29332.079438 29836.662236 29854.796281 -437.288118 -439.812042 -448.841663 -466.408794 -489.080408 -514.424495 -540.846210 -567.762325 -595.093641 -622.859040 -650.434030 -675.287808 -691.898238 -692.869486 -679.032815 -678.040108 -714.709363 -703.022070 -541.850780 -407.791940 -424.051926 -504.071983 -564.996651 -501.573826 -97.262435 687.657285 1436.196914 2049.409440 2741.007975 3599.578817 4616.456033 5780.297580 7011.725488 8179.507604 9252.432692 10277.891510 11321.727271 12476.411924 13758.773224 15133.792398 16567.603846 17989.265274 19311.406632 20570.803875 21882.725522 23308.149144 24731.980631 25928.901668 26905.084841 27777.934903 28567.421718 29182.572554 29589.460289 29703.700004 29708.585220 6407.660744 7521.779578 9722.533229 5220.692697 13160.929397 12268.883578 13101.485140 19933.988392 16395.222880 9249.506455 20725.669028 21890.750229 22561.441565 25048.622635 25956.514487 24669.842957 26600.270394 26992.089265 27962.548934 29972.235269 9357.075168 15337.638738 8149.754234 16725.781867 9480.288866 13240.973256 11252.500540 17339.630280 18483.725107 20508.235214 21034.806705 25260.641306 26630.172817 27046.626183 26594.232510 24532.352395 27522.899270 28635.821438 29204.178681 30154.240590 14829.150393 13886.504115 8723.420292 18974.901609 11013.088832 18410.182668 18297.691934 27562.094921 22600.011009 22521.777762 24069.584287 24985.747463 23098.564757 27164.137934 27328.122857 27604.009271 27329.558190 27221.932136 29961.188955 28377.819416 20510.003695 24496.230830 14815.453451 21021.351542 18708.945883 26020.535113 16641.883428 22380.717142 23107.263716 25411.399312 26277.611986 27595.460305 27220.477869 28086.985856 25973.569822 28240.633164 29412.020983 27783.740744 29967.815600 29534.034939 19682.442815 26643.527093 12471.944359 15500.459206 24612.784786 21183.959594 18507.105916 22390.793191 21802.651688 16007.132947 28275.734323 24461.833009 23593.007210 28300.280905 27111.357163 27278.884476 27531.977956 28998.292627 28123.772770 29830.081199 11073.705214 20006.131785 12236.238159 14826.715738 15000.405661 18991.937120 21583.405062 28490.411220 22393.770169 24016.342383 23942.754900 29448.951817 21337.005028 21331.987679 26973.663251 28465.731889 26791.100116 29182.333297 29283.574155 29983.268976 22014.028658 17368.744626 22661.817301 16884.619309 14329.508635 20730.130889 26785.294042 23360.217815 24846.208819 21297.457537 25987.344812 25695.959216 26423.230052 28017.812987 25330.273268 25771.699693 28620.723956 29407.767585 29749.800112 29872.672184 20255.501754 18718.148417 15935.142203 20483.304149 19205.363444 20371.077378 14577.619581 17965.158568 22825.508199 20491.538069 27844.369122 25262.620522 26932.476212 27169.765887 27260.323312 28002.710401 26510.668850 29524.035739 28129.570650 29563.735664 16029.153871 14129.599186 18464.013609 12198.577090 21253.349999 16369.424991 20182.321546 16720.988036 18784.455500 22000.190318 18326.671740 22452.049218 21605.022185 24877.276563 25898.197224 24009.068333 27123.122830 24877.031452 29688.671569 29888.578170 12170.773228 19970.387813 25436.560527 9659.671923 18049.300411 22327.586479 17792.639012 16334.205101 19857.050273 25850.408358 24574.181713 23126.912258 25096.089562 24615.518768 23216.123597 25707.422752 28109.883250 29188.649902 26130.287114 30075.882392 19020.431491 21907.430498 16929.218167 19016.040774 23331.905335 24148.380904 18282.050366 21783.452387 22755.408170 21273.246369 23131.309655 26657.446070 23458.996674 28040.689112 24652.549164 28305.880772 24197.857110 29031.000187 29998.248502 29076.142340 7309.822631 7061.333072 12441.676755 20059.325982 15351.549623 17990.709553 13449.727994 13641.307166 20456.054579 27112.029774 24681.746176 23318.476685 28925.150343 22855.060697 22962.113410 28140.586728 27951.411863 27201.862188 27726.465331 29456.430485 11885.747121 11410.998949 12910.797454 15018.395981 19507.098063 17040.218982 15401.749531 22734.314092 23461.641698 18674.130774 17650.353883 24546.583290 19746.841767 25911.356492 24829.573486 24766.198609 27949.668042 29509.946741 29098.597941 29128.999037 6704.817510 8933.264952 18680.825810 9216.481871 15374.194424 20171.892226 16646.820609 20425.081582 18757.760515 23013.694309 21396.245293 26450.505099 27918.990989 25697.790565 27851.626827 24994.104501 29476.779206 28936.970902 28723.649059 29133.079334 2633.376170 6446.331386 10886.482140 12380.667512 17154.958872 19904.325230 18494.433638 23745.222434 20857.365672 20555.983995 24873.430502 21409.826638 26947.821701 26163.067042 26838.434691 25477.831668 24962.581745 29229.031978 27571.352119 29434.866367 4467.794553 7269.843397 6452.315019 6529.615491 18869.804995 23159.886282 14467.267492 12294.958867 21300.947518 17598.037557 22220.434024 22302.367812 28002.426257 26705.084912 27431.050540 27120.957373 23602.430062 29360.740255 26875.565494 29395.215161 8971.343804 8681.900532 7293.430010 9186.312036 11396.210376 10079.488332 18999.409114 22993.100060 20832.785591 21597.746628 18455.186753 24453.815253 23907.842354 26775.160181 20710.940885 26252.283542 26393.570713 28159.156990 29840.884134 29460.435073 7312.309295 4969.359257 7719.950360 7099.939004 11304.251773 10574.978379 10860.961242 15162.298355 17625.534257 16153.083934 26003.928247 24574.017659 24529.888788 22895.951582 24790.075361 25049.846653 25388.641798 29266.725410 27938.043658 30018.944968 8497.386274 6926.745436 6530.789182 11591.036091 7159.643229 10666.692327 8592.647775 13640.324263 21912.098451 25107.145319 25546.080034 22335.998920 28994.334421 25443.663195 27528.778512 28414.594907 28684.322996 27836.015664 27581.193867 27995.302138 7193.840691 7586.078875 7238.098240 6527.501224 8904.535168 6662.262629 8164.960511 20038.756193 18751.945758 16106.774612 22314.900017 20086.183236 27466.101064 27496.112307 28681.972711 29045.366429 28375.065559 30133.323331 30361.507210 29032.848471 5244.962470 3302.119328 5920.529702 6448.060159 7908.928141 11016.915409 14420.764831 16140.264816 13886.894567 20236.505324 24064.133476 21838.479061 26824.526923 28626.735314 26731.079597 27126.122881 26213.904525 28807.880354 27810.055234 29780.587021 5738.097668 4593.664463 6891.286693 6118.741873 9207.233336 9061.954083 13062.814073 14742.318051 13154.151023 16057.769185 25536.644613 25096.370538 25271.312461 25625.590714 27951.621281 23885.964013 27316.166612 26944.802914 28953.384273 29413.883100 8951.595769 7644.737048 10740.536186 6106.741180 9810.060092 8699.425142 12350.779382 10844.451684 18072.239572 20620.008643 17787.414541 26018.508817 24156.691773 27621.453610 22575.437471 29304.175819 29444.000575 29352.460478 28608.272442 28610.034905 8680.605391 7293.618171 7637.507269 7417.580648 7996.083211 7779.462237 14416.559557 12639.863169 10950.523201 23747.521294 22654.768265 26379.406791 26726.871189 26792.598442 27826.447841 28449.265403 28646.795217 29100.845975 29272.221934 28678.155342 8077.192387 8959.201531 6505.517524 7131.701406 14475.480687 11557.446930 12332.561636 16561.531817 15624.306872 18502.854523 16569.828242 23002.406216 19014.645372 19401.326129 28122.221121 24860.799134 29159.571377 28158.342626 27363.715134 29307.964140 9231.794939 7499.172623 7991.587280 7963.191042 12136.820791 11046.885109 12275.042609 13900.275343 15852.628949 18024.708654 16553.694975 17722.489298 24438.450116 24470.666559 18550.770659 27045.237530 25025.963749 27889.631000 28144.452407 29163.360121 6193.516289 5944.579529 8967.985768 7358.609315 13210.462186 12517.849709 9457.358014 16020.389704 16370.533049 20374.932595 16580.740072 21603.167364 17544.149370 24034.578085 26388.218282 28040.445300 26228.004020 29270.152676 29355.815774 7760.234984 7643.309390 8422.754795 7139.115116 8839.353660 12228.154609 10524.748360 14592.958625 18884.327224 18922.393418 20523.003450 24588.938781 22752.553954 22047.626147 25734.847638 28524.349801 28057.842795 27053.535042 29341.219264 3777.420575 7377.896988 10410.157014 7142.575316 10940.775302 9624.474036 9516.764224 12309.887355 13712.696344 15497.858660 21394.192370 15271.676938 23672.892809 21126.839449 25316.061736 25969.498110 27233.243712 26619.870485 29108.625351 2865.191265 8952.470003 7381.323759 7696.652857 9871.979146 13274.347992 14349.510685 11369.677104 16193.661438 15503.937057 17690.739069 23202.503648 20580.046187 23690.633584 25718.987872 23079.218426 24549.942915 26377.568810 28791.580901 7158.700613 7073.292611 10747.857787 8819.634495 8361.819253 7296.025116 13845.011111 13170.942553 12828.763807 11925.171367 17942.300028 18643.336589 17282.548053 22374.117600 19625.689853 23525.711028 24263.902957 27920.564415 2130.507658 7271.613883 8192.471772 9737.336620 9626.946809 8070.253993 12683.880729 10951.417107 16671.622367 13678.762802 15267.937534 19378.939555 20720.293625 22546.900252 24588.179369 22537.291945 26498.700138 27137.082001 2759.177851 8209.334467 8254.685997 10805.847597 8471.981597 11318.366985 9602.740911 13384.067731 18841.241759 14695.825193 16919.829781 19989.829659 18393.582240 22278.315887 23307.293302 22573.777828 26860.346160 3123.777266 6741.699545 7706.242760 9087.999660 12901.963494 10552.050803 19703.087631 11495.169992 9650.490645 17418.746823 16914.680960 20808.686447 25007.754233 23490.301726 27308.196934 25667.523836 26525.962684 7633.756231 7378.523085 7550.980506 7910.835621 13880.226799 19675.456608 19139.343952 11227.178094 12780.699212 21945.948443 17223.698726 19976.755192 22996.705890 25662.320857 19523.655896 24580.350911 26624.347143 26876.256487 3204.800931 7702.910291 16432.827292 8661.504636 10036.425417 8386.239797 15891.986915 19029.787896 21797.177482 22216.742861 20399.608277 20972.583484 22749.748802 21448.749602 22188.323789 24716.552759 8307.328982 8095.988563 10568.079965 9457.451157 11837.835970 13712.734016 14081.734685 17369.851403 12719.013593 11316.430572 20862.860199 20648.705543 22479.852160 24223.357677 19336.035174 24736.662057 6692.639207 5400.315366 7214.454334 8866.680840 17649.079118 14253.578718 16021.632375 17848.479428 12205.990578 16126.164350 20887.939251 19226.688874 22857.544827 23335.763148 23359.201295 24457.852065 12692.778167 7197.714822 7154.482054 11339.312116 9260.669227 10474.272852 16760.387046 7648.903731 10116.734734 13850.232419 15819.133380 22516.847022 20328.679989 22706.383132 23822.588583 5429.208550 7357.926587 8221.801316 7934.333194 14214.490377 8174.317448 8224.376511 12478.658660 14097.698933 20502.166078 21540.496412 21967.220057 20806.029714 12615.581478 23713.862410 11568.535307 2198.617636 7210.166679 7540.357430 10763.543397 11817.559919 7331.543216 13343.000822 14802.889194 12027.846124 21351.783620 14665.779096 22824.266679 19195.659548 23928.916944 3161.904517 8004.348161 6921.079777 7664.749285 10684.263164 8719.013161 11077.788300 14523.122951 14735.293587 10705.814924 20677.655855 22154.553429 22514.510817 23026.723960 3342.500874 10543.686519 8400.834908 9609.268861 14102.743232 11354.325505 13139.069902 12824.107652 14446.654750 15497.479153 20583.980935 18021.824124 23672.059832 21636.166169 4619.431625 13856.340318 8157.394956 9368.867352 12630.615086 9713.696343 16148.459197 16166.186000 10111.728802 13692.112191 19891.714876 18696.257941 16449.238990 21555.591381 15280.007892 15996.031665 6605.855026 9010.247656 16401.667942 12214.523592 16895.172349 17623.407120 20028.095372 15760.310915 18484.590012 21576.528555 21336.371108 11236.562940 11439.989336 10338.879610 15283.831379 5963.668836 15524.415131 8782.791403 14099.229311 18624.766134 16951.508558 19475.715177 21389.599684 20884.845273 2744.456205 13634.721234 15484.222190 9681.005122 14853.042985 13842.291637 15379.352334 10541.514417 17302.763065 14091.157790 18341.444994 19358.644644 20220.212193 12854.697359 10113.435498 11603.248831 12808.762217 9962.245581 15639.221091 12041.797657 18518.055715 17642.688486 18371.741807 17647.019671 17873.786121 1775.464430 14650.306888 11183.703132 4574.693788 11068.828654 11697.190877 14168.589995 18781.596926 15700.026625 19558.938604 18178.281289 18623.346352 11650.554139 12025.452373 6712.411656 11945.323774 5006.178861 11686.482233 17518.763543 14442.677297 18081.929711 19802.709358 16208.401612 18476.446958 18538.597514 2140.447484 11524.583498 17020.554446 13193.143348 12507.529578 12535.218854 13189.062773 17049.802872 17573.181271 16074.306739 17844.463174 4075.825765 10076.115278 17714.095138 13141.494268 15577.819793 11295.425307 11734.600475 7749.167190 20473.366724 10436.681589 18143.602244 10618.068711 11853.312371 9793.111973 11662.036171 13947.201015 13933.876976 13801.426835 17446.333292 18654.065374 15624.383626 18702.600371 2249.905803 13425.658536 10950.427547 12638.909457 13275.403782 13890.924513 12146.351082 14063.860920 13232.930560 17982.263634 6773.444061 9912.324883 11210.962207 13207.443552 12112.207435 12185.273995 17200.217042 16851.574897 17159.005895 17841.981475 3986.185285 10100.555244 10968.690611 11462.952098 10982.618842 14893.750018 14792.927489 16545.307580 17500.348925 17088.779741 9818.304690 9779.185550 13301.457826 12721.359603 17144.144444 17551.623252 12650.754466 17130.458998 17354.818362 5410.234174 11550.628738 11504.588520 10695.923594 2254.277191 15250.735066 16987.699514 16047.027466 17848.778811 4447.280531 10503.166579 13380.180153 9880.125126 15757.673168 15884.300137 15517.904904 15282.898975 16567.758310 2939.246440 4923.240255 5204.391565 12257.813235 4452.814825 11442.448332 17471.391781 17478.280647 4675.712831 14554.575416 10067.064230 2847.130526 14138.399155 9816.220698 8888.453434 12478.068988 1931.577271 4328.257168 3883.081516 10628.818775 6910.208735 -102.810724 17306.140665 11206.696003 19796.701276 4368.513315 8768.312452 6519.509023 10643.442380 15030.607000 12049.583790 10105.983570 7474.108269 3999.623621 10740.121927 9440.201561 7320.688957 10300.591993 18606.796673 3219.870122 5537.855383 2288.032318 16102.349615 12064.992966 10291.939839 10241.883466 6620.984877 1920.022850 10747.855345 1776.993310 7950.681846 10625.991362 3890.038156 6894.282036 4532.401465 11118.039313 11665.061515 15529.259556 5731.837077 4050.388227 3926.109652 10342.644954 6418.635043 3997.159246 4307.566591 3004.816054 6412.358474 13263.937654 -226.219325 2417.809007 4270.502238 11616.366041 1281.222568 14690.187454 2342.093868 4038.388884 2578.632323 3054.292364 6044.623568 1785.428232 1891.867638 4624.498083 13848.460301 10620.463417 2665.921359 2597.840001 4893.037052 4406.017628 1810.078459 6292.310813 2556.980951 8162.836562 1816.099296 5713.298695 1753.798777 2875.211052 2200.588226 3694.663000 1326.651105 2994.233216 3211.808472 2836.513767 10231.836323 3668.150273 5393.350249 4224.539792 4217.921127 3487.456410 2447.413876 2238.217372 -1035.829535 -1711.063688 3177.661530 721.417648 5683.320636 3646.478051 6808.833902 252.486529 4999.638676 9438.098103 2645.246792 8409.589004 2771.218913 3250.760947 11515.578033 3959.361644 12181.224319 5365.629901 12119.770750 10391.399133 8898.440823 13583.128455 7517.469298 8963.669023 15063.569934 13745.405882 8768.776988 12185.193424 8882.220989 11054.137626 11041.777612 5864.314256 6818.047881 12278.047869 17197.353615 13863.515493 16933.353221 18573.037955 10243.238080 12587.751701 8599.686215 9503.867481 10965.185389 12127.788784 7799.849476 7396.336447 3500.427630 2876.231787 6803.251878 10217.392598 16258.906498 6568.711657 7862.354223 16451.123825 19693.149853 13997.291805 8303.359487 5258.409087 14361.585007 14976.073939 4547.114647 7536.580163 6990.658767 8109.892616 10740.021844 11421.362004 12691.509609 15140.381363 14422.408010 11376.338178 12005.470181 9298.231320 13721.477417 9907.069582 21614.317855 5701.167945 9604.540311 4804.754305 9235.029292 8227.316031 7215.501898 11100.734364 8745.782409 13108.256804 12676.309975 14896.402588 10458.878518 15577.520827 17836.623034 13144.943776 6406.694937 7003.896406 7278.981487 6593.075642 7942.341350 8506.071338 6585.393794 16479.741607 9856.076061 15268.362273 13080.761713 14113.346613 13569.232691 15841.940431 18898.444088 7806.161513 6249.905866 6879.993748 10948.435418 7698.022653 9337.379848 11543.069438 9468.429060 13826.526818 12973.968684 8072.904553 10965.497077 10989.272730 16450.700981 21561.533618 6368.492418 5852.061431 7488.641692 7363.510948 5465.080132 8027.006268 12325.313478 7449.291127 8912.659819 17856.467402 13191.382569 14282.281844 9367.110332 12425.284113 10980.713184 7521.056876 7549.227785 4943.912940 7249.519337 6882.961467 13462.816216 11769.121334 11968.728159 7463.910236 8758.349430 15533.467227 16142.880778 11371.598439 18772.693588 19831.160605 4864.366743 7135.650169 4588.997234 6732.696010 5263.085866 4923.040326 6538.328219 10221.819309 14777.287023 14392.743463 8610.238198 10439.566630 12329.362624 8592.316678 18281.993077 4683.597522 8191.083258 8138.608483 5904.963184 5925.723146 13732.527468 7775.628396 16779.900056 7111.709548 4587.045588 6359.780530 14175.398034 14834.490459 7981.790249 10391.256710 6585.923315 5330.245837 6408.722693 6180.545277 6877.601124 5755.740391 5494.964817 6904.262610 6513.219766 5662.455664 4793.851383 9632.820532 7564.148630 5384.970458 10392.953752 5857.459371 3965.970585 5687.050401 4578.360375 5532.733881 5820.050159 7236.824884 7068.489017 11304.456703 7816.214483 3486.662546 5446.114084 7357.353986 7595.371527 8258.085032
</DataArray>
<DataArray type="Float64" Name="Velocity" NumberOfComponents="3" format="ascii">