<VTKFile type="PolyData">
<PolyData>
<Piece NumberOfPoints="2186" NumberOfVerts="2186" NumberOfLines="0" NumberOfStrips="0" NumberOfPolys="0">
<PointData>
<DataArray type="Float64" Name="Pressure" format="ascii">
 24090.278651 24239.874365 24711.449991 25104.365949 24591.435775 24790.827814 24538.828711 24274.761724 24229.736201 24146.237935 24232.130598 23884.779921 23701.736445 24192.874070 24866.960856 24779.463952 25049.687557 25211.433343 25105.239640 25206.379182 25008.906036 24809.548913 24408.663615 24261.528589 24301.114305 24412.090384 24871.147071 24605.524866 24438.931298 24469.793791 24847.056006 25361.875323 25600.425708 25288.610070 24877.792854 24726.598614 24635.770784 24441.686850 24433.916550 24764.632318 25029.686215 25201.435826 25502.352586 25908.062744 25955.893074 25424.385863 25233.595755 25399.085976 25411.685016 24954.890654 24468.297188 24417.566577 24519.280323 24511.528765 24959.644171 24983.771783 24974.657241 24943.001629 24987.935617 25164.415300 25393.516860 25377.580032 25288.619840 25307.516289 25319.317594 25284.194801 25261.028936 25503.972481 25955.225709 26115.326511 25893.931154 25833.397673 26062.245603 26159.848566 25985.662026 25814.811749 25827.292255 25750.711051 25441.104098 25088.250505 24809.739073 24588.419779 24512.942834 24412.090384 24186.839352 23787.588451 23559.439437 23246.411502 22997.617073 22722.385547 22520.929032 22413.671268 22083.028883 21997.295264 21718.539908 21057.087147 20567.560280 20397.285102 20269.318763 19876.109165 19571.939682 19431.504825 19249.837848 19185.544073 18949.183817 18550.172922 18402.398946 18036.177412 17797.007938 17588.175731 17353.890915 17013.896691 16781.145066 16448.765365 16065.166880 15810.182210 15706.366394 15587.387729 15249.420917 14930.596375 14689.889350 14488.619588 14235.838992 13922.899806 13685.388204 13738.045819 13677.312479 13332.667209 13144.441649 13125.690176 12947.802275 12610.015272 12202.319371 11854.619535 11647.595641 11532.318063 11466.381917 11205.987526 10877.054777 10803.901338 10739.448152 10506.466989 10357.115683 10288.004420 10288.752451 10184.953714 9807.896380 9517.812623 9239.281409 8501.513043 8264.281494 8454.985598 8540.663332 8108.584567 7406.283009 6637.901021 6014.275980 5297.388771 4534.778523 3889.547246 3445.821608 2979.477116 2507.006191 2282.536844 24511.528765 24433.692020 23996.824854 23498.424305 23300.198468 23432.259807 23395.474631 23050.651627 22748.251566 22520.883981 22159.073180 21720.553145 21273.539853 20797.703888 20464.935598 20356.752117 20213.886079 19921.324646 19748.225262 19724.088896 19526.579293 19163.162322 18774.957331 18476.769111 18268.865083 18039.592008 17658.940235 17354.235396 17024.376296 16840.400169 16601.235865 16241.174450 15960.159638 15730.318354 15440.042853 15264.687452 15076.299683 14785.493038 14479.135198 14208.030494 13973.946381 13778.106707 13695.893862 13592.448801 13333.895253 13122.404960 13033.272663 12867.516732 12546.910351 12144.459932 11827.596274 11629.456814 11493.914757 11321.330076 11059.482660 10836.547115 10670.853036 10524.943580 10344.771826 10200.444474 10109.410348 9990.493635 9737.806723 9441.438449 9244.511508 8959.946612 8499.490267 8182.895915 8172.802235 8065.493144 7567.864278 6886.383707 6250.064790 5631.435487 4979.688519 4339.409068 3783.115525 3293.408172 2852.824688 2491.586409 2351.643101 24512.942834 24521.022374 24482.539485 24200.530812 23843.163971 23621.535929 23422.928069 23090.011763 22692.048020 22354.092639 21982.267385 21603.675205 21344.389511 21173.063763 21037.878254 20886.759012 20625.845443 20235.625001 19889.771708 19668.513125 19404.936815 19111.344806 18875.833258 18606.299041 18334.277384 18055.215949 17716.369686 17380.870858 17059.510942 16791.770457 16565.921213 16317.886547 16098.202672 15952.881671 15789.080190 15577.663404 15342.304464 15049.674494 14727.633047 14427.363875 14153.299276 13906.779447 13690.858054 13520.079956 13355.572148 13173.332850 12988.024460 12793.779480 12560.476666 12296.468759 12036.369628 11802.612725 11589.125022 11378.805888 11166.006456 10947.570807 10731.287331 10528.927088 10344.269975 10184.635547 10046.710101 9892.988840 9689.951782 9446.752353 9193.595313 8927.361994 8627.463393 8335.910016 8111.074257 7896.124822 7562.135013 7073.230358 6500.417018 5904.607591 5300.149138 4700.157267 4133.478237 3621.911305 3169.929247 2779.687757 2488.275584 2393.260602 2282.536844 2099.834212 1821.391353 1613.771353 1480.344972 1374.265512 1265.764754 1182.669660 1120.634119 1081.946683 1064.839219 1055.996808 1051.421487 1046.395151 1041.352122 1036.318292 1031.187555 1025.845336 1020.195051 1014.161012 1007.683626 1000.705377 993.129160 984.642050 974.662894 968.550690 2351.643101 2253.529108 2091.892470 1870.290316 1669.427194 1514.774167 1398.487268 1301.555127 1216.676919 1148.751023 1100.558517 1073.975115 1061.095229 1054.572928 1049.143240 1044.081527 1039.186685 1034.297557 1029.283565 1024.040348 1018.486846 1012.562280 1006.223251 999.441347 992.204985 984.551589 976.838472 971.473465 969.295993 2393.260602 2340.132473 2241.800391 2078.940196 1877.145413 1685.109668 1527.579037 1406.077365 1307.491493 1223.411224 1155.786119 1107.841236 1078.911312 1063.853411 1055.427675 1049.323734 1044.070253 1039.111175 1034.190268 1029.151043 1023.882247 1018.301520 1012.349832 1005.991217 999.221762 992.104632 984.876717 978.151239 972.928868 970.358987 969.670809 968.550690 960.697737 946.468684 932.815366 919.319134 905.650061 891.744814 877.602772 863.241919 848.685084 833.955772 819.076885 804.070346 788.957030 773.756803 758.488610 743.170573 727.820123 712.454117 697.088976 681.740810 666.425550 651.159067 635.957298 620.836350 605.812609 590.902838 576.124262 561.494653 547.032403 532.756589 518.687032 504.844350 491.250004 477.926339 464.896614 452.185041 439.816801 427.818071 416.216042 405.038934 394.316008 384.077575 374.355009 365.180748 356.588304 348.612265 341.288297 334.653151 328.744663 323.601753 319.264435 315.773811 313.172081 311.502541 310.809592 311.138745 312.536626 315.050992 318.730736 323.625904 329.787715 337.268580 346.122126 356.403226 368.168035 381.474025 396.380032 412.946306 431.234568 451.308073 473.231679 497.071929 522.897133 550.777462 580.785048 612.994094 647.480989 684.324431 723.605555 765.408069 809.818395 856.925807 906.822577 959.604112 1015.369098 1074.219626 1136.261313 1201.603422 1270.358979 1342.644953 1418.582679 1498.299114 1581.930900 1669.637683 1761.645886 1858.394846 1961.013726 2073.438561 2202.123340 2278.370010 969.295993 965.904477 957.595486 945.456122 932.550111 919.248940 905.637294 891.748533 877.610705 863.250357 848.692927 833.962720 819.082881 804.075407 788.961192 773.760106 758.491088 743.172259 727.821041 712.454288 697.088413 681.739520 666.423535 651.156325 635.953820 620.832123 605.807615 590.897055 576.117665 561.487214 547.024089 532.747366 518.676863 504.833196 491.237824 477.913091 464.882255 452.169525 439.800082 427.800103 416.196778 405.018326 394.294007 384.054134 374.330078 365.154279 356.560247 348.582570 341.256916 334.620035 328.709762 323.565020 319.225819 315.733264 313.129554 311.457984 310.762957 311.089983 312.485688 314.997828 318.675295 323.568137 329.727571 337.206007 346.057071 356.335637 368.097855 381.401198 396.304500 412.868009 431.153443 451.224054 473.144698 496.981916 522.804012 550.681155 580.685473 612.891164 647.374612 684.214511 723.491990 765.290754 809.697218 856.800651 906.693319 959.470627 1015.231255 1074.077287 1136.114332 1201.451626 1270.202122 1342.482545 1418.413435 1498.119153 1581.727846 1669.371316 1761.184315 1857.298739 1957.800723 2062.258489 2167.116085 2241.169946 2270.333269 969.670809 968.462955 964.116442 955.662465 944.687737 932.279094 919.153915 905.599334 891.729231 877.597985 863.240448 848.684632 833.955634 819.076843 804.070333 788.957026 773.756802 758.488609 743.170573 727.820123 712.454117 697.088976 681.740810 666.425550 651.159067 635.957298 620.836350 605.812609 590.902838 576.124262 561.494653 547.032403 532.756589 518.687032 504.844350 491.250004 477.926339 464.896614 452.185041 439.816801 427.818071 416.216042 405.038934 394.316008 384.077575 374.355009 365.180748 356.588304 348.612265 341.288297 334.653151 328.744663 323.601753 319.264435 315.773811 313.172081 311.502541 310.809592 311.138745 312.536626 315.050992 318.730736 323.625904 329.787715 337.268580 346.122126 356.403226 368.168035 381.474025 396.380032 412.946306 431.234568 451.308073 473.231679 497.071929 522.897133 550.777462 580.785048 612.994094 647.480989 684.324431 723.605555 765.408069 809.818395 856.925807 906.822576 959.604111 1015.369094 1074.219613 1136.261271 1201.603285 1270.358531 1342.643490 1418.577906 1498.283538 1581.880060 1669.471725 1761.104142 1856.625514 1955.250896 2054.312277 2146.390827 2219.381314 2256.311991 2265.911601 2278.370010 2371.162444 2540.048477 2703.241286 2866.213249 3033.384817 3205.996939 3384.531707 3569.235220 3760.282289 3957.830881 4162.047043 4373.124844 4591.308868 4816.920463 5050.385011 5292.253874 5543.211224 5804.055312 6075.653277 6358.910804 6654.963049 6966.237929 7309.405393 7619.567033 7924.356859 8473.834194 8840.757316 9288.938817 10182.893190 10693.279774 11192.479967 12180.435624 13013.223641 13835.462725 14563.687938 15088.769583 16021.230510 16934.688032 17756.227065 18499.553418 19194.501419 20016.503702 20907.798017 21773.825367 22284.158725 22773.589897 23522.303586 24419.850886 24470.062472 24090.278651 2270.333269 2310.380781 2408.174971 2552.104910 2706.362288 2866.982589 3033.446138 3205.840528 3384.305402 3568.984310 3760.020555 3957.562070 4161.771266 4372.840332 4591.012345 4816.607137 5050.048481 5291.885603 5542.797749 5803.566422 6074.997774 6357.778612 6652.235044 6957.862065 7286.441208 7606.186406 7904.269584 8395.601839 8798.098814 9237.314334 10024.019719 10591.807294 11119.799082 11964.335859 12787.052754 13667.882443 14464.648418 15010.632675 15837.524676 16748.463220 17587.050483 18392.113703 19196.615282 20012.743171 20867.009098 21650.316989 22282.580413 22997.036146 23671.447988 23997.584905 24139.950325 24504.341367 24871.147071 2265.911601 2280.366492 2331.503711 2431.130388 2561.295692 2709.652481 2868.192704 3033.993929 3206.184489 3384.589456 3569.253003 3760.287763 3957.832558 4162.047532 4373.124902 4591.308590 4816.919420 5050.381582 5292.242696 5543.174716 5803.935731 6075.260433 6357.617153 6650.681986 6952.178713 7259.464768 7577.374398 7913.098208 8326.837583 8762.021776 9261.843654 9888.539892 10495.292500 11127.057614 11911.353417 12719.528050 13520.165420 14285.048480 14985.260938 15796.802838 16653.496614 17496.255667 18331.943202 19149.420257 19903.214036 20625.269842 21326.575223 21991.800809 22749.364620 23639.229525 24336.781210 24705.273453 24898.656014 24957.154733 24959.644171 10704.242462 10729.686845 13159.797719 13409.203922 14253.932745 14741.560467 14748.840746 18689.467465 16584.422563 14135.302981 19342.938277 19707.061604 20651.033499 21884.076919 21964.311473 21101.921276 22434.802270 22716.145664 25018.633607 25177.230480 13266.211425 17180.547754 12870.604062 17701.071436 15238.686481 14498.317582 15051.365173 18008.886221 18319.243685 18255.977192 18892.483261 21907.907447 21906.117938 22579.563658 22023.584064 21002.101494 23933.832815 23813.991874 24576.069841 25091.768925 15388.288360 17464.288310 14064.580972 19127.785176 15051.029860 17162.359232 17400.825813 21967.202522 19684.847300 19987.867832 20820.281985 21167.321805 20019.214794 22472.889597 22720.250836 22308.159836 24014.597423 23169.954613 25233.176448 25052.793821 18476.932853 19903.358729 15755.770772 17022.084543 17576.840440 21943.528039 16013.311904 20022.799887 19927.746847 21638.901768 22208.449961 24448.956345 22421.372869 22069.994253 21992.725986 25171.684918 24145.985978 22272.969805 23870.995152 23986.892193 19087.191822 21976.690112 16493.723967 17285.177323 20874.384250 19169.530996 16219.610167 20687.002192 19441.684537 16377.881533 22147.201702 20639.551320 21337.349299 22096.543659 22199.065822 23526.003281 22492.673435 22317.259442 22508.620706 23602.161155 13752.684115 18271.280615 15409.055853 15235.299987 16766.060862 17516.941219 19192.149382 21735.547939 18871.943088 19013.334588 20930.290667 23463.871210 18357.041728 18587.005135 21403.178201 22254.802991 21654.092191 23377.434546 22876.898272 23883.706827 19324.972311 16673.242327 18382.066315 18273.111127 15364.340594 21248.651367 21645.559991 20588.552905 20053.091425 16923.693981 20878.512062 21032.187532 23421.885608 22485.411042 20653.355625 21048.743812 22217.106315 24263.119078 23843.248353 23564.457611 18084.795321 14874.082995 16114.034479 17744.667600 17461.651358 16091.480488 17115.978037 19079.592031 20024.379390 17604.451406 21636.225839 20108.777734 21077.627169 21496.866292 21524.701873 22466.629151 21676.736570 22983.573655 24667.826936 23776.055718 15320.475060 14457.531835 16314.799876 13743.867717 17794.051330 15652.700685 18202.570150 15812.985308 16308.835231 16904.646659 16326.905456 18567.351844 19549.271357 20421.185300 20792.625167 19413.026163 21728.491768 20015.262693 24083.753752 24182.870950 14730.481801 15717.118839 20011.377414 15421.164300 15770.567910 17383.082470 14965.817091 14951.288623 16728.734501 21225.784512 19671.983506 18882.911972 20151.772659 19803.197660 19724.113744 20672.216017 24664.226383 23675.450965 20446.042961 24060.458319 17862.404053 18258.518853 15677.627556 17246.064928 18082.968677 20207.384010 16609.569565 16408.199297 18570.955419 18958.047668 16970.079666 22131.086135 19150.025196 24284.669964 21139.757351 22326.316228 20374.967957 22993.122223 23977.058667 24108.006954 13509.759155 13587.315776 15623.426324 16995.301671 14990.167502 16659.761396 15517.721028 14282.945011 15699.413102 22331.984354 20184.746215 16053.811169 20476.308386 18719.920181 18478.435244 24395.972112 21805.640965 20747.445786 23169.131762 23554.688732 14565.108450 13947.896393 14509.272544 16496.982939 16471.103275 15055.094994 15340.529563 17284.678513 16862.552669 16559.262301 14703.546127 21332.603367 16013.238024 20987.838415 21215.876399 20389.677149 23409.301235 23319.900587 24566.822985 24239.941490 13515.518033 13223.120538 15996.785498 13400.844805 15800.688391 17256.869820 16108.023592 17153.784275 14205.807595 19191.038761 18116.138410 19016.856142 22814.409906 20956.349291 21334.562209 21859.173732 24121.566342 24675.851691 24482.842033 24349.347603 16560.628100 12281.254759 13760.554861 14354.237825 15859.331115 17491.906371 14798.772420 18107.608216 18763.673330 17175.486331 20012.747485 17806.459817 21028.209634 22304.800958 22445.283160 17242.706423 20518.722954 24699.075811 23609.127377 24683.624744 13744.415514 13514.019158 12767.366182 13125.218320 16722.308854 18947.639630 14499.455969 13992.769743 17387.080004 14285.332932 17410.475296 16140.613373 22046.309659 21974.625657 23174.920987 21904.145597 20330.004586 24063.700131 21446.498306 24251.829214 17433.848403 13225.757751 12793.556806 13429.551097 15109.061730 14464.381390 15308.363744 17212.633275 17154.398195 16444.622761 14606.579566 21215.612281 19045.609082 22447.518757 18058.719658 22382.232605 19453.796232 21495.475914 25042.854609 25004.861534 12532.367256 12287.192207 12661.656684 12868.095735 12734.378583 13692.712315 15298.757774 14040.599512 15499.241014 15091.513915 20979.390347 16418.468166 16271.123680 15946.965495 22022.477577 19358.304184 21235.273585 23723.808446 23482.097239 24806.856250 10331.645589 12256.688249 13227.436885 13124.139859 12799.840444 13132.348638 14013.208396 14314.062047 18930.753654 20909.402343 18565.326881 19673.232626 24163.735055 18825.039820 22246.866095 23432.075246 24275.347926 23145.150348 21837.685442 22907.357479 13161.122818 12522.489873 12309.031453 12685.772713 13475.624383 12645.912744 13260.142555 18923.485876 16296.951388 15241.884035 19053.092601 17345.934215 24436.779891 21911.043385 23932.569100 23437.947941 24413.401415 24757.136530 24975.185687 24639.983261 10577.111881 12326.003895 12878.565196 13218.515024 12398.902934 13679.371263 13903.336134 14652.075850 15845.747291 17977.087306 16795.752103 16410.434467 18167.569471 23193.675590 18100.098878 20016.701838 21817.988746 22481.362777 23015.528252 24589.650914 10693.771309 11575.908141 13519.930770 12528.820495 15090.081533 13520.546341 14235.120254 14987.819401 14098.988827 14277.284050 21391.035801 23672.856382 21487.578375 21640.957959 21993.243680 18045.131134 22590.638490 20915.496587 24463.609688 24343.535717 14157.757744 13374.693066 15187.874458 13317.819315 13407.492731 13225.653422 14759.024622 14080.653060 18243.925259 17978.984164 17247.543808 21398.229398 17856.214436 22915.205219 15445.733387 23596.578181 24832.637625 23620.410976 24969.285663 24223.752539 12083.211800 13318.383105 13189.861338 12545.727130 13731.045243 13068.339530 16676.543342 14868.145787 14046.113057 17914.511349 20848.558089 19733.925105 20877.978219 22042.094828 23861.326207 24113.347407 24673.409033 24148.778375 24654.184173 24505.356486 14904.503533 13496.651698 12040.501197 12905.218520 14812.652675 13386.355136 13591.172218 16459.289352 13655.023961 14852.852631 15219.698094 20745.400327 15647.232431 16416.952509 23731.062870 23337.997192 24262.340028 23707.755511 23544.452032 23851.883457 13308.185006 12711.520880 13365.880436 13155.254999 13812.092570 13071.506311 13280.402123 14571.077257 14601.358321 17637.478893 16681.006656 17665.249456 21862.582640 20681.156585 16001.132875 21775.209318 23385.453472 22329.247837 23979.087792 24505.494747 7525.855936 12342.536681 14177.446195 13344.252050 14986.475265 15707.564632 13261.550481 13473.463835 14227.708447 17186.628866 15471.838485 17976.334790 17393.884918 19931.308237 23169.978106 22294.285656 23071.531934 24804.628649 23726.512680 12628.301115 12031.785752 12485.619784 12193.965236 13688.035833 14027.797692 13272.422910 15847.626539 18905.864012 15070.339690 16759.670481 19403.592178 22653.425087 16364.902887 23712.802305 24442.773026 24020.336656 21466.232813 23498.098445 11494.980145 11834.614801 13157.905390 13344.921073 13767.833748 13952.495714 13153.703198 14054.395373 15719.298654 17168.231020 18588.429139 16748.677858 21230.104378 15875.413170 21987.454799 24432.709326 22119.317574 23170.956708 22979.361628 11919.779780 12266.756002 12729.860788 12365.309632 13760.627257 13413.150411 16649.161349 16369.603063 15929.817497 19152.905840 17633.597350 16480.916467 18076.793940 18804.446339 20203.812828 19380.578105 21349.808285 21697.821096 22618.296899 12253.168211 12126.378694 13412.414981 13405.019431 13443.186150 12434.547960 14225.278015 14234.616199 13638.321198 14157.751689 16799.111285 13376.216058 19771.035433 17914.744796 17968.695628 23424.701905 22159.417309 22200.312587 12315.423553 12198.180166 12414.145941 12675.400123 13689.726613 13305.254427 14956.041280 13993.913139 18344.142832 15698.937636 16321.831661 20178.580252 18939.601055 21846.385839 21677.024900 22173.958543 21550.556195 21907.272209 11005.078590 12381.403909 12259.941070 14217.657295 12765.130255 16586.602076 12428.716449 15894.575324 14578.631135 17009.446563 19620.853525 20589.385161 18134.285781 21805.562156 17202.354774 22537.628860 22904.525279 11489.324107 12558.620339 12207.633330 12705.480637 12919.422514 14000.336660 19074.581304 12990.442080 13749.729833 17457.629336 15228.174274 19631.166498 23068.442427 20650.189445 18435.326537 21341.453627 21671.675803 12226.227559 11689.895984 13541.603234 12273.755416 19295.568966 20881.121637 15957.515248 16928.065875 15367.947562 23282.029656 15703.862378 21711.650352 20852.971006 22412.843511 20872.672890 20511.517882 21636.276651 21643.820744 13769.858801 12654.843562 18867.834984 12313.117816 12533.182770 12579.643107 13802.218489 16258.984740 19108.875317 20005.017290 21018.646420 19796.714366 21454.330016 20557.071321 21248.893615 20646.671902 12241.940118 11999.708115 14720.878745 12927.956225 13173.778486 18339.667801 14470.453345 18584.131173 19751.584531 13963.221339 20619.247438 20455.447103 22497.037634 20353.229422 15375.912851 20314.393690 12021.505719 11564.121287 12136.001271 15249.109897 21868.163665 19259.807914 18660.127718 16421.547132 18196.464201 15429.699301 17007.792878 21344.348431 20250.423857 21370.754625 23270.334765 20444.468177 13091.546677 12112.531365 12398.222636 18206.150436 13708.843521 14216.408818 19504.295601 13329.824210 13716.757599 19669.184902 18612.656263 21553.785920 21030.296410 22258.469505 20087.219336 11474.169334 12470.710327 12810.832553 11880.071575 15234.961715 12683.918660 14526.791202 17317.455427 20857.043021 20318.488417 19036.863370 22408.891224 20034.271516 16638.059055 19549.876807 13132.271485 7161.963505 12368.550032 11668.936838 14119.360381 15884.938333 12417.425367 17067.003570 21008.920384 15991.790062 22244.723784 16432.861794 21253.551001 19742.923247 19190.413217 10791.082173 11729.228970 12435.473263 11363.756187 14494.234475 14425.700858 15756.920591 16530.718585 15424.691270 16209.609599 21110.394091 22105.720150 20780.119365 19007.280037 14089.545864 12459.705961 12925.784202 20145.002443 17208.440621 15080.129247 12247.965546 16365.291002 16879.988798 20834.713340 20230.400183 15978.196777 19872.355068 18889.426267 12416.642052 9890.882040 13215.095952 13390.473760 18800.134381 12668.230957 20430.797999 16498.699085 14618.133096 14594.258878 19921.680211 19633.025465 16884.484086 18643.901513 10362.473605 17111.535988 11829.925223 15047.460281 17328.494064 17077.469588 20387.109330 16820.341943 18889.143680 18405.485688 21356.458370 18570.606939 18362.336594 17727.129347 13747.411501 13279.131536 15780.669627 11960.310363 17410.718015 12071.701021 18747.907744 19770.801794 20238.575662 20560.078986 20268.039151 18046.548308 13538.215572 15220.786626 19796.666662 14708.839984 17374.192138 20614.259154 18677.296936 11890.925319 19930.717860 17783.851772 20089.370213 17679.899282 17920.159741 15225.986855 13152.793749 13433.903808 17777.109699 12497.439958 17756.766461 13251.570646 17627.711854 17572.397872 18044.254324 16723.293747 16918.587208 12880.145319 13444.712711 14023.489843 12176.230327 11152.738182 14226.383217 15704.188092 20250.604769 14817.014851 19497.182656 17501.367848 17502.505517 13226.510203 12154.651926 12409.511004 18887.757123 12709.105370 19446.460509 19776.201074 16823.362151 18748.110841 19402.748074 18187.471689 17500.242122 17502.382164 7802.649176 16741.273939 15705.510522 18298.728594 15006.632678 14039.736809 15764.102871 21358.032898 20601.275427 18141.891068 20538.855849 16453.095446 9798.346382 13443.940246 14412.266681 19205.284826 19418.328907 17850.442228 10057.380444 20428.017759 13641.085157 16513.048084 10785.804163 12849.099823 12490.633302 13122.034863 7904.675993 18852.495385 16825.424777 19054.969168 16115.262418 17909.658941 16255.176807 12397.868624 17159.205553 13510.955097 15762.323004 16552.055615 12191.716751 16352.476050 17590.782500 17605.470420 15801.854759 13792.694907 14643.375338 12242.155848 17128.113652 17462.132171 17079.654229 16269.778326 20287.430741 20982.988807 17817.488968 1167.282430 10241.332685 7462.069175 17216.069353 14270.719263 17610.945121 14563.173217 20351.407838 18530.771843 15708.274407 5613.288722 15331.383440 15171.923964 14344.727661 18329.711554 16828.081130 18501.557764 18653.641330 15540.278533 11531.214339 11222.630947 15533.571343 12746.260638 15094.462924 20266.655786 16139.373595 13199.756120 15752.893621 11396.789378 10853.597955 15509.152653 16367.668852 19654.130759 18100.986375 19607.635111 18112.041298 14880.545559 12307.236748 15504.867516 15184.239874 15685.883623 15086.094681 16309.460422 15706.267153 21007.662300 7224.500208 11337.405046 10720.993132 14993.839327 19194.158050 16211.835941 13208.421250 16522.443738 3770.434511 15249.245958 14642.567231 15771.372150 13794.397801 14921.532604 19250.180660 14028.780985 11285.459832 7727.752971 15223.333421 15395.574527 16055.119088 17715.077462 15075.310669 11346.585176 13812.750170 12564.442221 12448.765736 18376.539307 15513.654857 13746.708566 12661.846804 12089.537599 17784.717017 6524.676806 15797.453801 16788.423584 13746.041845 13746.048106 10047.506760 15705.338086 16476.385907 13981.358615 13141.090018 16996.622600 1084.454166 13905.668532 16292.403353 18071.101512 14452.934721 18663.578337 11953.583149 16641.931616 14383.391312 13674.978377 13799.654299 13021.272428 1474.092128 14890.027586 14527.309022 18114.735000 12695.717552 10949.033565 15794.098245 14585.277215 14822.182071 17861.779886 8526.257484 12575.067011 12812.285170 10288.274016 12080.724862 12409.665304 12005.802646 12461.384565 14144.968060 11952.417648 8373.710406 12169.031901 14237.997157 1590.647136 12386.308337 11631.379145 11512.701419 13319.031783 14533.587006 15606.484555 11502.189468 13779.154003 8128.844052 10908.919615 12273.635032 13523.157363 10855.835414 12175.603578 17103.440054 9276.742988 10185.526042 14715.818993 10375.888791 14616.327208 10261.199687 10192.862787 12101.321386 15328.790112 13606.460075 14406.200629 12984.444366 13170.447797 13330.026361 14593.453551 12141.576145 15608.720843 7745.241338 14695.139846 8837.768263 8868.160246 13692.588211 11201.747468 13942.258169 13205.359954 13317.658385 13586.667364 14225.130393 13867.896432 14777.054878 13330.985023 17721.670143 15501.508943 13393.720499 13362.499808 14242.110019 14447.963666 14517.221547 10973.134676 13616.596272 15232.108177 16329.915040 13541.939784 17833.579320 18353.910841 15193.444146 13962.828281 13835.841439 11940.180431 14060.706529 13955.628805 13444.286443 12929.919704 11995.322340 10766.361070 12990.968966 13808.517170 16466.105310 12770.988106 13656.472064 17473.498443 17994.352923 15875.858880 13162.097970 13450.212683 14924.502295 15618.839549 12649.669375 13771.991509 14830.004382 13707.034923 14066.165475 14232.929517 14695.962219 16516.678747 15657.427967 13513.269158 13556.591333 13512.202979 16640.210451 14402.544891 19721.857267 13735.206565 13842.359165 13189.479840 13416.485752 13409.070537 13217.351620 14599.459609 13458.066583 16053.871326 14489.900659 14145.815679 14119.645133 15527.411329 15951.507826 13390.628442 13362.193456 13331.388566 13434.835687 13461.477460 13486.705617 13274.887223 13508.385507 15331.278491 14495.497488 14498.038959 14952.016654 14178.159198 14667.719705 15002.418338 17399.396009 12550.690913 13622.566602 13235.419541 14814.206312 13761.986544 13274.117018 14204.109442 14101.255191 16492.853958 14233.194579 13553.467752 13817.295439 14541.725347 14209.557378 17622.745174 13353.633798 13102.711575 13098.609719 13607.633123 13308.959047 13405.552219 14721.287811 13252.200425 14134.115429 17032.418812 13776.900003 13842.987546 15022.300261 14936.235635 14543.312520 13273.477633 13274.020917 13554.967950 13073.810191 14036.501174 15089.101285 13635.150222 14268.101523 13312.859559 13540.922966 14538.413753 14975.004837 15502.811883 17926.272684 17057.631567 14689.527553 13470.928451 13381.871878 13432.366508 13491.628435 13402.290980 13144.164650 13941.169621 15690.112833 16863.247245 14447.114149 13654.836548 14213.850266 13987.114760 16361.246259 13455.523306 13506.069784 13789.057868 13310.934195 13327.104739 14077.742774 12977.840291 15531.485862 13388.352563 13296.266754 13598.541975 14663.555269 14756.770926 13717.516436 14279.133194 13245.652271 13186.310708 13144.016911 13366.712754 13285.923961 12612.161976 13271.209494 13130.570361 12214.318440 12372.664980 13242.058303 14113.125174 13036.894918 12641.083069 13841.736929 13048.225082 13130.951716 12352.302598 13137.234289 12108.882589 13118.008243 13593.486287 12198.532283 12479.504623 3241.126872 11994.249783 13086.266293 11432.605891 14906.364577 12312.185740
</DataArray>
<DataArray type="Float64" Name="Velocity" NumberOfComponents="3" format="ascii">