<VTKFile type="PolyData">
<PolyData>
<Piece NumberOfPoints="2186" NumberOfVerts="2186" NumberOfLines="0" NumberOfStrips="0" NumberOfPolys="0">
<PointData>
<DataArray type="Float64" Name="Pressure" format="ascii">
 27325.034811 27407.219167 27779.605409 28113.401608 28172.645068 28028.805027 27782.450321 28082.475375 28308.198594 28368.195600 28401.023599 27554.172066 27253.373607 27651.419921 28174.348176 28304.076676 28605.029317 28592.203408 28694.645022 29020.412682 29088.621990 28638.530300 28112.011949 27156.628972 26654.646236 26703.701176 28199.884073 27942.843552 27541.197804 27563.901665 28065.558250 28490.197508 28450.608500 28189.595466 28458.695121 29254.587287 29555.043831 29019.659406 28203.779957 27784.021046 27877.552079 28194.206750 28482.499734 28708.162364 29012.322206 29118.652497 29073.041617 29097.955159 29269.819091 29153.610726 28247.730589 27169.389032 26795.404267 26821.413713 28150.645113 28257.737354 28411.868882 28409.845425 28328.730886 28418.475816 28559.323560 28498.001725 28378.881987 28544.802452 29005.514311 29236.858865 28971.014277 28617.788420 28433.401783 28418.919584 28548.998869 28716.807938 28863.895306 29039.923833 29199.267920 29155.681037 29005.868776 28920.763000 28687.873436 28110.025806 27436.222033 26985.753766 26841.276659 26703.701176 26926.343011 27142.910030 27095.767772 26606.672559 26074.358515 25828.454130 25374.631930 24704.291001 23699.134621 23005.584521 22814.151116 22966.981730 23025.120740 22460.678942 21539.922380 21012.934253 21036.795657 20771.002359 20229.675468 19249.463053 18271.536998 17802.035875 17755.658109 17804.945607 17459.631264 17132.349018 16809.144740 15963.726134 15606.479035 15700.826156 15473.100890 14900.524244 13974.740039 13377.312906 13312.765796 13471.706023 13313.413612 12861.757452 11833.896403 10947.002530 10364.919328 9996.722372 9884.238686 9713.607557 9907.132316 10123.165648 10005.530826 10124.844509 10077.221629 9916.719936 9664.304459 9950.750792 9888.732854 8599.506220 6807.824754 6258.558996 6198.362972 5737.276946 4917.456754 3689.068454 2944.517092 2807.001885 2767.452603 2080.828578 1916.439751 1408.242656 1692.265772 2044.826239 2004.002017 1850.707398 1771.393351 1827.936732 1959.341845 2100.016960 2189.303299 2264.930060 2200.778906 2092.261220 1924.652044 1820.733235 26821.413713 26794.412151 26973.802544 27302.666690 27291.930810 26817.608484 26127.158222 25424.502033 24897.215489 24269.516570 23497.436986 23014.597160 22978.824027 23012.687879 22751.086080 22175.344972 21670.358597 21497.537323 21124.053870 20382.512525 19540.320223 18842.680425 18402.969559 18241.853006 18217.975803 17868.196664 17129.580597 16644.695129 16344.467859 16025.660207 15647.967803 15168.256738 14672.846791 14181.551775 13748.900958 13539.272610 13558.021751 13395.227891 12786.942931 11892.284763 11042.284054 10423.761753 10109.728049 10039.667962 10018.229549 9975.276947 9828.937425 9669.554996 9552.844721 9413.970044 9238.484193 9111.199687 9045.489015 8745.487184 7798.677037 6686.416757 5952.724751 5418.914547 4811.473262 4083.405052 3287.417413 2789.256306 2529.770969 2183.237726 1848.485785 1704.270864 1865.098322 2061.975495 2070.650311 1930.337548 1799.466485 1783.285527 1866.657275 1996.691717 2114.618346 2168.736703 2167.145492 2116.662451 2020.185315 1900.727575 1848.669112 26841.276659 26772.399708 26695.054028 26727.539291 26706.488436 26487.854101 26119.216586 25695.555621 25218.288460 24644.187236 23985.922914 23401.161547 23050.018162 22830.353986 22600.897725 22266.208081 21834.462769 21418.643564 21022.420458 20502.127363 19876.656146 19248.212207 18664.892217 18251.754939 17986.464080 17608.591146 17029.437282 16526.120822 16239.722295 16021.361251 15730.396426 15357.367949 14909.209665 14435.967327 14005.015796 13674.564138 13445.617036 13174.627246 12712.566569 12094.930877 11429.667551 10843.311041 10438.833498 10208.889036 10087.852849 9978.366666 9823.466142 9624.578569 9395.466072 9164.809543 8952.487215 8774.329841 8616.050366 8367.632768 7839.443879 7024.473250 6171.354161 5440.501565 4783.235737 4137.894031 3516.178315 2996.428870 2623.019505 2339.746278 2127.522512 2021.885991 2045.575882 2124.515021 2121.447808 2003.901867 1863.741046 1794.902463 1824.452818 1922.943874 2034.818689 2115.056736 2142.896995 2121.162178 2061.015427 1975.372902 1894.475318 1865.447296 1820.733235 1726.889051 1571.051989 1450.855478 1377.686603 1326.301270 1270.515584 1223.157415 1185.791640 1170.127147 1184.357633 1205.357692 1223.202530 1236.166941 1245.628353 1252.210189 1256.252782 1257.996425 1257.631643 1255.316608 1251.182604 1245.325054 1237.754520 1228.165494 1215.783353 1207.785766 1848.669112 1805.411894 1723.530308 1603.189792 1489.291045 1402.774993 1342.675003 1294.046066 1247.968230 1210.086836 1187.853400 1187.613961 1200.905752 1217.170607 1230.700585 1241.187552 1248.935065 1254.207095 1257.226381 1258.179747 1257.225762 1254.501541 1250.128456 1244.217130 1236.876688 1228.264304 1218.954969 1212.282194 1209.634286 1865.447296 1844.378204 1799.279527 1717.012548 1608.565765 1501.411635 1414.089329 1350.201378 1299.612651 1254.601684 1218.538315 1197.974412 1195.064526 1204.784502 1218.469484 1231.100423 1241.339177 1249.003683 1254.230088 1257.207443 1258.114485 1257.109010 1254.331309 1249.913660 1244.001145 1236.807069 1228.765819 1220.822870 1214.468736 1211.374078 1210.596954 1207.785766 1195.666455 1173.284738 1151.336840 1129.297974 1106.702677 1083.484933 1059.670491 1035.311640 1010.467073 985.195988 959.556409 933.604780 907.395919 880.983065 854.417930 827.750724 801.030153 774.303401 747.616075 721.012145 694.533864 668.221676 642.114125 616.247750 590.656998 565.374118 540.429082 515.849499 491.660541 467.884888 444.542674 421.651449 399.226159 377.279133 355.820086 334.856140 314.391851 294.429256 274.967931 256.005060 237.535519 219.551971 202.044973 185.003090 168.413022 152.259746 136.526659 121.195731 106.247682 91.662145 77.417862 63.492877 49.864742 36.510744 23.408133 10.534376 -2.132579 -14.614020 -26.930163 -39.099829 -51.140091 -63.065895 -74.889658 -86.620826 -98.265407 -109.825464 -121.298572 -132.677240 -143.948288 -155.092191 -166.082379 -176.884494 -187.455620 -197.743463 -207.685507 -217.208142 -226.225756 -234.639824 -242.337975 -249.193058 -255.062221 -259.786005 -263.187470 -265.071370 -265.223388 -263.409456 -259.375171 -252.845335 -243.523616 -231.092342 -215.212317 -195.522314 -171.637017 -143.139326 -109.553490 -70.253245 -24.157217 31.582556 102.153314 146.838543 1209.634286 1204.215486 1191.095621 1171.781303 1150.954616 1129.206413 1106.695932 1083.501732 1059.692487 1035.333300 1010.486766 985.213272 959.571202 933.617106 907.405833 880.990631 854.423212 827.753786 801.031064 774.302228 747.612892 721.007029 694.526894 668.212938 642.103707 616.235748 590.643510 565.359247 540.412935 515.832185 491.642175 467.865585 444.522551 421.630625 399.204753 377.257264 355.797874 334.833702 314.369302 294.406709 274.945495 255.982842 237.513620 219.530489 202.023999 184.982710 168.393316 152.240787 136.508512 121.178456 106.231327 91.646753 77.403466 63.479499 49.852397 36.499433 23.397847 10.525095 -2.140891 -14.621410 -26.936694 -39.105580 -51.145158 -63.070393 -74.893722 -86.624613 -98.269097 -109.829260 -121.302706 -132.681970 -143.953905 -155.099016 -166.090767 -176.894838 -187.468346 -197.759039 -207.704441 -217.230981 -226.253092 -234.672289 -242.376244 -249.237848 -255.114292 -259.846153 -263.256530 -265.150210 -265.312906 -263.510576 -259.488840 -252.972523 -243.665344 -231.249779 -215.387117 -195.717757 -171.861753 -143.419703 -109.974286 -71.095273 -26.368265 24.315225 79.073504 119.037603 133.963542 1210.596954 1208.619865 1201.662097 1188.201044 1170.617507 1150.533753 1129.050248 1106.626542 1083.461521 1059.663293 1035.309427 1010.466392 985.195779 959.556345 933.604760 907.395913 880.983063 854.417930 827.750724 801.030153 774.303401 747.616075 721.012145 694.533864 668.221676 642.114125 616.247750 590.656998 565.374118 540.429082 515.849499 491.660541 467.884888 444.542674 421.651449 399.226159 377.279133 355.820086 334.856140 314.391851 294.429256 274.967931 256.005060 237.535519 219.551971 202.044973 185.003090 168.413022 152.259746 136.526659 121.195731 106.247682 91.662145 77.417862 63.492877 49.864742 36.510744 23.408133 10.534376 -2.132579 -14.614020 -26.930163 -39.099829 -51.140091 -63.065895 -74.889658 -86.620826 -98.265407 -109.825464 -121.298572 -132.677240 -143.948288 -155.092191 -166.082379 -176.884494 -187.455620 -197.743463 -207.685507 -217.208142 -226.225756 -234.639824 -242.337975 -249.193058 -255.062221 -259.786005 -263.187470 -265.071371 -265.223390 -263.409464 -259.375198 -252.845422 -243.523900 -231.093271 -215.215351 -195.532222 -171.669385 -143.245071 -109.898963 -71.382420 -27.839613 19.383439 65.860119 103.835891 122.565953 126.878390 146.838543 217.863234 351.772119 486.966456 627.102913 775.744424 934.082065 1102.722770 1282.053924 1472.345703 1673.769103 1886.389131 2110.154111 2344.893141 2590.332822 2846.143901 3112.023593 3387.805871 3673.567215 3969.661853 4276.592395 4594.637153 4923.232633 5271.905737 5646.637137 5954.684998 6432.710583 6889.550766 7426.167158 8615.191829 9533.520991 10206.315840 11418.073050 12643.220200 13423.244491 18944.338591 20725.940239 20544.741579 21613.605750 21443.820088 21776.358752 22232.362930 22909.592176 23841.553962 24640.974719 25172.391538 25614.072669 26372.157794 26877.172759 27248.791131 27325.034811 133.963542 166.299513 243.993753 360.325751 488.984247 627.408586 775.527310 933.697942 1102.280499 1281.589220 1471.872574 1673.295483 1885.921507 2109.698530 2344.454757 2589.914642 2845.745131 3111.638304 3387.423337 3673.176187 3969.262020 4276.216781 4594.372013 4923.159941 5260.776851 5617.046875 5990.670698 6436.712558 6942.708390 7605.872777 8557.334657 9476.251954 10415.790145 11703.260460 13284.819872 14645.071449 16755.972217 19107.472181 21431.059001 22196.961466 22050.030595 22268.409872 22604.051226 23058.574629 23763.865044 24575.730692 25247.186823 25780.837593 26320.532495 26805.876612 27214.236038 27754.186111 28199.884073 126.878390 138.967255 180.389665 260.651994 367.156043 491.589844 628.528379 776.182308 934.216678 1102.764156 1282.066651 1472.349618 1673.770309 1886.389506 2110.154238 2344.893215 2590.332952 2846.144282 3112.024805 3387.809799 3673.579960 3969.702861 4276.722424 4595.037874 4924.482769 5264.832415 5621.493220 6013.344259 6462.506532 7002.020028 7700.111914 8552.150005 9483.867401 10549.769674 11828.010954 13283.703031 14790.500146 16502.628596 19014.953204 21151.793163 21933.206814 22136.498428 22360.215496 22707.947195 23190.182972 23829.906718 24604.012735 25404.061603 26089.687787 26609.781648 27067.316693 27558.903552 28026.799149 28186.382989 28150.645113 9664.829318 9887.601742 10539.818378 10529.725698 12050.728604 17259.807253 18140.679633 21156.062320 19398.864409 10944.001215 21772.413464 22389.728964 23629.673499 24726.645881 24937.860115 24248.449589 25392.883890 25536.268364 27285.460581 27502.766889 10955.979314 16147.884493 9321.973833 19870.086582 10869.957477 13385.494392 13716.499186 19257.452053 20600.067926 20251.408404 20356.624132 24189.908033 25008.849756 25412.536305 24913.884070 23392.322547 26775.292773 26978.272011 27334.895176 27585.814148 15706.643115 18269.294678 11405.000858 20557.670346 14797.848174 19796.457830 18975.471349 25080.769274 21557.393251 22302.875910 23917.723860 24038.885697 23090.371624 24835.806387 25382.000181 25702.119264 26857.893559 26044.860238 27826.140804 27580.299641 19993.974106 21936.247057 17426.882993 18443.246622 18779.373693 24480.697827 16972.172886 22541.014032 22849.773094 24748.566636 24781.726026 27886.778408 25105.417809 25071.013793 24068.370524 27589.191203 27830.878574 25724.625019 26884.678252 27355.180247 21811.641294 24604.494735 11219.814510 17591.794232 23910.426054 21113.190181 15954.638801 22749.216210 21550.060552 14948.802380 25242.534169 22686.664221 24077.657167 25246.795192 24761.763245 25761.454242 24867.909189 25732.075628 25601.326060 27165.001829 11298.503468 20077.630159 14186.526035 14182.740107 16170.555925 17514.080222 21428.519102 25060.122886 20475.271167 21764.573511 23438.560168 25049.861623 19153.559802 20484.623300 24481.987242 24841.358157 24476.537555 25378.436561 25234.638947 26870.325464 21640.379279 16478.174916 20033.850884 20079.667879 13368.873111 24070.927103 24840.236040 24142.715594 22860.245706 17422.793744 23866.038809 24095.762964 25935.002735 25080.965014 24136.820278 23857.630731 24879.777740 25831.474937 26702.897107 26407.616701 18626.873053 14665.529942 16596.898184 18176.554546 18338.458378 15833.306747 17154.271534 21436.902908 22888.993993 18493.942979 24878.823067 21436.930323 24551.116546 24528.325234 24253.170360 25167.152536 24559.492982 24806.615348 27127.005853 27180.580847 13762.451960 13214.365740 16204.102405 11655.005220 18247.736535 14794.399969 20146.337519 16409.024810 16008.058100 17543.851237 16440.661816 20047.919928 21624.379382 23982.139554 23775.243992 21240.063319 24879.503252 21317.319796 27058.079696 27317.546293 13244.364094 16931.279744 21957.271046 14057.513366 15980.528846 19649.039297 14215.218788 14154.357176 16994.263860 24117.044180 21077.905897 19227.521027 22558.803909 23062.479175 21588.922976 22552.306055 27171.843424 25280.267671 22848.533823 27133.495865 18378.754938 19440.585236 13993.590973 16718.539188 20366.099970 22297.761664 17160.937650 17901.876457 19726.369405 19464.009250 17827.583270 25038.251761 21325.538781 26675.977306 22965.898627 24962.582603 22539.751566 26069.736806 27488.669915 26515.042001 11260.277932 11582.413982 14407.030313 17240.488617 14105.067531 15742.840613 14780.339713 12433.321331 15519.510980 25045.229021 20856.166522 16503.165409 21518.655602 19901.845826 19561.261163 27494.023295 25138.523071 22875.654857 25916.599166 27155.948572 14610.494695 12584.604695 14998.105498 15734.364028 15865.257280 13634.456468 14694.285130 19223.648226 15700.788020 16160.070256 14347.766909 23057.989840 17242.648071 22925.816745 22682.020895 21230.406695 26126.137628 26425.984892 28072.343607 27361.804929 11002.730127 12088.627664 16456.513662 12803.876323 14794.038687 17677.231530 15573.847094 16937.955422 13770.463731 19766.796405 18706.436340 20295.836742 26531.211960 22798.906225 22976.370426 24063.529698 27825.439472 27780.817324 27556.981435 28265.769584 15033.606722 11119.838227 12430.857091 13250.054817 14722.968872 19284.782791 14160.482180 20887.743523 20303.371635 16828.375715 22446.621484 18570.442778 23246.015843 25124.595316 25207.027652 18064.362284 20871.019294 28161.212337 26211.128474 28431.544420 9901.394615 11379.537672 10735.376746 11572.868683 17281.701585 21545.049210 14787.290125 12716.494615 19341.276894 13986.301015 17389.517318 16758.316298 25170.092069 23831.466704 26172.710784 25146.660386 21587.485865 27989.908066 24290.608971 28223.385289 16630.359552 12218.249666 11042.414811 11466.303037 14645.017280 13263.485313 15406.436940 18019.235714 20028.857912 14781.307014 15085.620360 23742.281164 21849.792746 25330.291664 20447.603916 24912.171156 19834.397790 24170.226953 28137.119672 28675.683884 12395.391081 12380.516262 11459.884685 11281.334335 11605.125601 12486.220052 14853.301630 13293.846215 15730.759741 15379.552795 23312.403816 17205.356786 16773.935719 16120.732346 23911.900556 21195.950969 24242.704854 27786.150204 26315.882201 28461.414244 10761.182396 11403.654630 10927.349690 12954.721324 11314.430315 11965.800157 13757.437217 14129.163065 20974.895108 23467.953439 21160.879675 22320.813411 26596.144437 20804.284417 25097.622696 25825.653567 26475.350426 25400.270888 24152.590744 26612.051601 11519.044759 12338.941543 11675.234757 11651.206799 12480.926019 12037.567506 11761.209703 18847.010715 15488.199785 16204.821634 21107.351511 17920.400092 25717.639106 24535.345543 26625.868522 26182.523039 25885.161505 27994.319289 28170.127038 27866.809444 12139.951463 12710.357731 11185.603451 11105.461238 11652.758235 13699.622039 13752.830732 15072.134048 16685.689885 19397.812124 18629.594829 18123.793849 20162.187156 25292.060390 19071.512219 21435.933307 24511.330681 25966.175162 25349.463150 27801.449493 2667.200281 13074.321355 11533.396590 11418.941502 15732.749795 12892.931858 14849.799677 16831.804195 14596.104618 14258.746857 24382.464062 26143.107316 24126.172723 24393.840980 25006.236429 19487.042521 23213.177843 22556.132979 26951.557580 27302.073071 14944.206064 11383.535425 14521.946435 11352.852721 13740.707095 11664.055014 15664.720855 14502.494350 18526.576907 18865.109676 17377.280111 24439.170483 20078.485916 25476.767572 17686.889192 26216.310350 27746.735318 27903.964336 26648.648710 26268.310435 12283.869372 11166.777817 11567.641348 11424.250225 12704.417869 11764.037341 17406.367573 15738.593552 13589.725325 19126.171209 23273.857714 22386.793231 23146.069807 24968.808543 26977.980890 25562.292576 26869.323333 27728.145045 27235.325470 26749.010958 15814.528841 14272.094674 11424.589673 11734.324698 16505.563216 12408.396553 13392.183476 17427.230299 13796.274209 15573.919569 16368.228781 22165.539769 17051.677875 17952.058116 25028.645682 25571.935651 25651.858564 26282.269202 26948.896068 26864.026043 13016.980738 11755.431222 13110.763526 11412.086194 13197.396003 12983.757608 11967.292326 14428.285421 15368.147413 17660.097940 17101.314239 19248.929023 22346.271481 23286.491936 17029.673676 24721.766571 24789.813377 24834.083302 26699.632478 26746.477813 13728.481617 11076.782399 14634.317130 12565.768639 15754.429984 15528.762467 12124.432900 13568.320718 14407.236756 18864.609336 16562.433126 19435.704192 18230.908636 22892.757411 25380.245651 25247.020328 24868.982089 27590.503209 26823.364866 11359.549427 11325.721882 12135.421728 11395.162187 12995.465847 13785.031715 12441.203671 14791.070251 20714.140350 16228.493877 18361.329055 20640.035188 24344.741129 18267.340686 23956.430743 26096.586565 25933.367882 24278.879139 26237.182049 12795.765046 11192.146715 13828.890604 11490.929995 14630.811212 15155.716491 12199.207444 15108.273070 15279.875665 19535.127570 21518.968416 17672.550058 23542.914721 15906.826533 24821.890812 25959.839233 24937.440178 24920.321277 25473.024305 12854.566079 12358.418746 12721.965406 11680.322639 12790.422060 13270.661779 16390.676335 19051.908234 18389.683634 18801.326601 17971.612258 17824.545332 20426.761844 20839.134594 21923.130007 22016.009061 22954.345503 23790.872881 25141.493009 12479.955257 11294.353231 13351.838012 12224.544774 11593.197481 11774.330691 14764.348970 16649.839489 12847.989497 13753.582303 18607.379573 15242.333185 20331.148794 19928.225732 18725.888809 23826.799398 25168.101967 25249.505611 11745.004148 11973.798274 12211.461170 11804.213397 14705.700157 13295.890091 14984.519690 14267.414720 18564.826956 18761.148027 16072.456035 21729.263771 19858.342512 22915.260623 24773.968612 23866.501098 23519.765959 24758.665349 11464.302235 11831.186864 12198.973767 14792.036325 12366.856311 16126.358767 12023.201846 15843.039783 16029.565858 18485.402298 19400.180840 21868.741340 19653.962310 23461.411589 19446.471728 23865.898583 24930.446017 11570.000569 11614.274005 11298.462114 11986.747190 13217.055725 14357.033037 20798.417849 13035.679198 12990.440564 18809.126964 16768.463881 22565.807818 25123.672186 23070.576834 20942.698985 23969.790345 23527.752791 12786.166421 12160.332692 12969.304702 12427.478354 19920.018787 22526.512357 16200.668585 15713.994060 15516.453884 24399.512348 16831.854370 22967.295702 23056.754436 24191.572601 20934.780983 22735.966068 22820.226066 22819.892589 11040.674360 12691.000184 20684.912863 11557.054642 11686.693252 12195.696404 13608.666080 17119.630080 21917.868743 20166.371456 22742.058806 21280.277898 23100.987021 22282.601425 23506.244165 23096.816726 11814.876242 12260.155406 14038.165545 12638.388313 12554.516839 18038.436146 14742.655364 20443.189977 19881.646055 14694.573484 22132.989343 22786.039041 23042.545028 21487.780691 17224.782742 22228.234431 11779.096216 12961.189079 12539.585361 14860.797530 23494.593791 19774.274961 18957.290283 18132.250050 18822.385050 14613.522647 19354.603312 23452.718542 22665.906632 23524.994399 24409.296098 21981.185724 12223.215134 12545.004622 12583.923115 16687.966420 13515.302244 14029.145811 20316.488279 13063.224961 14296.354125 21051.425435 20000.469945 24124.276346 23164.332449 22678.462382 20729.268871 11173.101264 12260.281728 13192.817447 12702.950554 15500.534709 12569.441516 15187.141887 16700.260091 22537.214161 23376.696435 20543.862731 23393.044431 21492.730627 19263.241861 20404.320803 12154.161077 11493.801351 12828.311399 12480.224545 15703.822023 15595.439667 12451.080426 17396.588328 22701.559342 15991.408434 24120.562057 16828.145174 22633.942623 22243.683380 20570.198674 12179.238906 12587.658226 11756.195049 12648.417159 14824.298147 13220.054128 14364.585940 16995.179469 15713.461007 14510.011750 22500.128745 24257.060943 22476.540456 20436.664649 10504.108091 11652.569382 12946.860218 18072.696589 19041.405832 14219.059791 13405.164000 16949.002361 19492.795583 21547.989612 21172.840952 18419.473440 20384.780617 19468.700095 11813.031341 12452.755635 13690.059168 14139.665251 19590.151284 13185.460829 19723.122459 18119.850018 13758.904566 15272.603545 21267.392954 21824.546387 17507.932746 18418.997142 10971.803229 16523.576964 12491.398631 16213.423497 18898.767374 17460.053962 22705.379038 15506.374583 21487.927351 19738.881077 21130.466292 17819.267347 17553.711932 15546.666957 12962.392766 13145.466273 17640.797985 11441.980315 19628.805797 12342.736813 20082.397072 20555.723801 21874.437433 21269.083326 21573.541144 17356.579403 10991.731566 14133.463990 20299.762852 15150.406335 16855.330266 17815.479942 16787.369861 13015.180498 20225.723646 19143.989270 20784.234567 17269.300281 17433.783297 13486.173213 12055.548357 12114.112362 14980.099715 12222.670795 17199.104997 14127.189495 17210.733229 19390.097976 16535.176344 15397.086761 17504.668442 12744.804820 11370.483733 12640.979042 11300.632185 11795.189322 14074.780024 16756.460753 21933.518656 16967.529271 20946.067701 19837.745352 17023.596254 11626.123654 11666.536102 12342.479232 19166.542718 12476.305370 16579.315007 19779.357339 15945.645340 18855.962953 20225.339844 18398.199036 17021.664387 17023.860087 7364.131690 15342.320462 14102.257991 16032.837228 15196.818854 13668.823469 15189.274479 22817.760005 18521.365524 16863.050354 20487.840070 14408.794696 11882.541287 11867.376653 12305.402189 20807.903360 17677.429959 16715.247755 11570.848656 22715.641997 10969.059088 15347.312231 3257.209760 12778.991392 11793.835830 13819.555455 10415.339472 16481.193061 16016.913957 19644.132494 15477.554668 19980.426413 15411.842889 12290.919748 16363.003962 11841.803509 14060.015736 15211.251366 13099.885483 14243.534508 18581.174483 16191.549356 15194.905557 13923.504167 14809.181974 12356.630155 16485.046893 14805.975658 16254.831754 18255.970731 21401.079041 22075.732571 17890.994296 1209.752784 10591.099384 8964.387660 13437.103477 11666.865764 17182.771002 12975.620226 21914.658986 19419.193709 13495.817302 1564.763198 12800.197010 13015.693690 13601.284351 17524.146298 15122.640150 17226.531253 18064.645438 13012.939197 10153.306825 9802.716186 13812.530069 13464.931227 13814.486390 17506.611740 15816.875026 14108.170929 13224.432935 8428.042863 11290.449166 12936.960800 15305.840994 18331.572512 15652.946546 20933.742521 19562.841651 13002.284923 9636.295159 12220.983440 11468.996737 12919.698550 14608.094505 12716.989425 14937.038907 22039.492662 8660.362766 13488.006116 9608.623427 13498.524366 17551.454434 13150.354876 9703.686009 14759.318420 2233.229641 13428.805309 12586.387783 12494.395343 13856.166295 13338.723995 18180.686234 11227.222273 8688.147060 9073.942960 12269.393257 15270.035619 15284.037033 17638.673630 13279.386923 12569.447772 10407.732136 11426.258503 11725.763619 16559.708176 12915.050190 9986.495275 11356.733325 12937.812349 15199.366206 8604.198627 15782.527816 15374.938188 9934.417552 9924.277072 7622.240435 11845.094915 16421.858664 10406.704808 10240.681450 15550.209873 1167.640921 10615.980792 13627.099590 16407.256466 13431.576631 17760.048870 6931.742230 13852.548837 11731.448011 10823.400685 12061.250552 10336.828404 1364.746663 11563.076718 11240.497695 14644.245745 10293.464101 8481.816646 13962.025952 14642.579980 11549.922118 16140.126292 2514.068870 11142.213301 10133.487394 9291.254575 10685.099240 13679.290967 8340.227036 10260.188807 14022.936550 11837.251255 2028.048637 8921.960926 10362.578235 1433.144644 8901.668368 11991.422697 10097.921165 11476.699640 10222.530208 12165.292889 9790.488385 11767.834299 7965.310201 7300.215204 3653.347398 11429.824467 6779.928919 7925.529419 14917.735205 3775.994751 7058.456239 10615.739010 4946.153286 12972.061696 3364.637881 2440.488907 8265.092144 10928.998454 10432.864747 9926.740582 9510.857831 9844.825306 10456.518168 10888.363851 9819.430813 10334.500963 5905.132464 11106.496610 6962.746257 7127.478115 12296.814440 9661.783327 12092.556488 9985.017291 10972.314639 11454.844104 10853.635880 12864.566886 13576.554973 10712.900153 17994.077509 13109.969282 10980.856621 11547.515475 12176.611763 10899.959388 11715.628711 9010.616580 10843.849215 13299.971579 17578.198933 11858.490075 18823.706270 20035.478985 10408.941086 11068.801689 10865.671477 10025.604779 11352.448626 12507.264914 11248.880162 10105.488116 9662.837168 9811.989808 10640.236030 11885.217044 15943.641099 9989.352106 10461.451735 18319.383267 18829.342581 15099.869619 11044.957243 9208.233770 12162.590088 15233.283620 9612.062683 10564.971632 11240.057397 10553.630032 11388.422765 12851.055268 13379.485427 17531.996691 14946.226459 11774.208041 11653.263159 10784.711661 17687.539690 13021.736443 23028.693041 9885.667795 11167.460834 9598.363610 11513.091549 10647.807457 9523.485366 13997.763345 11680.723479 14649.173040 12114.338226 12223.187658 11667.859729 14762.450879 15693.018584 11354.990915 10032.304591 10296.421592 11141.561286 10414.641657 10694.245005 10764.850499 10205.211028 13977.134096 12035.968919 13380.636866 13485.096422 13415.446214 12888.659370 14988.480602 18521.296388 8986.853799 10087.145719 10599.123929 13087.445768 12306.794494 11547.479411 12998.727075 12072.142128 14934.162652 12312.088947 11296.539419 11145.332386 13056.052637 12588.277335 18966.110433 10032.374896 10820.757628 10723.867137 11699.028704 10885.555797 11938.748595 13792.445711 11298.595271 12510.047334 15719.184417 12226.047091 12935.602521 13204.153450 13047.478174 12772.912930 9785.764593 10585.173419 11243.251471 10702.151448 12105.755155 13689.620125 12129.065798 12890.028106 10653.588183 12022.196911 14150.647639 14481.721699 15241.836136 18140.354257 16571.975511 10592.814222 10683.210908 11343.475055 10513.800278 11016.125365 11335.889162 10639.697675 12655.449698 15057.554603 15926.613813 12831.358277 11532.878349 12275.725852 12267.067838 16516.800018 10372.972645 10626.952409 11707.093522 11076.751347 11129.706771 13905.746861 11856.860783 15648.787438 11153.628931 11457.252723 11020.876604 14316.283463 14249.534756 11091.172853 13483.908598 10654.700051 10716.623253 10594.237677 11141.066451 10808.466998 11330.546521 11306.266842 12561.372230 11181.959244 11040.101918 10929.488476 13569.933557 11460.890518 11225.107064 11868.735077 10681.113030 10899.541073 11211.959315 11509.821008 10997.049884 11573.599951 12786.677974 11958.795657 12071.889850 2241.480343 11828.410648 11369.550380 12394.137884 13960.436481 11408.835379
</DataArray>
<DataArray type="Float64" Name="Velocity" NumberOfComponents="3" format="ascii">