<VTKFile type="PolyData">
<PolyData>
<Piece NumberOfPoints="2186" NumberOfVerts="2186" NumberOfLines="0" NumberOfStrips="0" NumberOfPolys="0">
<PointData>
<DataArray type="Float64" Name="Pressure" format="ascii">
 26728.252705 26144.026547 25792.346322 25646.354483 25699.449322 25750.591174 25431.224966 25063.034562 24787.823056 25102.970387 25493.626484 25734.220539 25747.098529 26135.046923 26475.367718 26396.747394 26775.430324 27422.014202 27745.982678 26931.214121 26277.643477 26496.730349 26223.006415 25673.057974 25350.941600 25096.205900 25939.562441 26450.209593 26640.176863 26374.371292 26258.110935 26365.553882 26304.361613 25821.503857 25378.876690 25317.595957 25511.004445 25501.597817 25743.035884 26438.522083 26862.766131 26827.439840 26860.508156 27428.995615 27954.942295 27870.443790 27797.014970 27679.252026 27403.974710 26924.733283 26477.526953 25960.451851 25296.354568 25075.465749 25751.360410 25796.412552 25979.998952 26119.260011 26024.039719 25945.173086 26008.163696 26079.273670 26107.565021 26137.288379 26221.503449 26201.775558 26058.316213 26035.454073 26223.122265 26355.413487 26277.688386 26238.800930 26376.472084 26557.916196 26663.126573 26785.194976 26925.300838 26821.892393 26515.994251 26135.769926 25669.150712 25260.800351 25151.561394 25096.205900 25027.467838 24840.655921 24603.383977 24358.419914 23731.747607 23003.350335 22861.822384 22696.006779 22059.979571 21210.768728 20773.185084 20770.753685 20740.164462 20776.076697 20634.099716 20223.775027 19651.442898 19114.945264 19120.000783 19310.545946 18772.657382 18008.802633 17567.902050 17179.956793 16900.175974 16587.488145 16369.200976 16101.557015 15630.598631 15246.501649 14966.939110 14663.680316 14522.597498 14586.659155 14372.235173 13853.936607 13575.820498 13397.583564 13107.704398 12887.953232 12692.134321 12642.547692 12520.373052 12110.245320 11637.231796 11259.450260 11311.973683 11208.425248 11042.576722 10436.719878 9734.371412 8761.465725 8668.102184 9470.028249 10538.146254 10634.033810 10148.932571 9666.890330 9251.856183 9081.859510 8969.167222 8900.999732 8891.201301 8708.073565 8531.910326 8403.856468 8021.008770 7224.092396 6758.674521 6341.621366 6059.076139 5693.378126 5411.899574 5214.396617 4919.224945 4632.637986 4099.184019 3454.896248 2900.113526 2677.971589 25075.465749 25065.365301 25287.131008 25355.204506 24835.276930 23951.782519 23278.782674 22959.768472 22663.978477 22231.660002 21639.225877 21214.830212 21138.757295 20928.592689 20691.306088 20619.392142 20453.651933 20041.696648 19636.104703 19526.202215 19532.940019 19211.545416 18429.958447 17661.535605 17269.959238 16957.776742 16585.666870 16325.242947 15940.597489 15626.542379 15476.896224 15304.929214 15030.765549 14780.077853 14601.093972 14416.577246 14083.066659 13788.958224 13520.380664 13260.033290 13084.542016 12861.842805 12628.498049 12458.959669 12192.011143 11843.485694 11579.442879 11459.305057 11257.458315 10839.673701 10287.948055 9705.097431 9240.841695 9186.805479 9505.378832 9828.673683 9872.935813 9739.650826 9476.109530 9219.310474 9064.958352 8960.739714 8887.632993 8801.051479 8631.870895 8400.843407 8120.021216 7736.468809 7263.889408 6829.823984 6417.874883 6010.733555 5675.013345 5400.107422 5154.303349 4847.991718 4393.801040 3833.716077 3313.020550 2916.136905 2769.393830 25151.561394 25033.717922 24898.269074 24836.716338 24556.780802 23989.048193 23461.189969 23115.412633 22829.657817 22503.888773 22150.916420 21848.153000 21655.981534 21457.179394 21195.564146 20923.826511 20592.863744 20162.029344 19763.715507 19473.417393 19206.584813 18894.688026 18429.059196 17854.840669 17398.481329 17021.469499 16639.157261 16348.694763 16112.345412 15880.316602 15679.935571 15490.156655 15259.267743 15010.318844 14805.284702 14635.555235 14439.950702 14146.712176 13786.317347 13466.580087 13201.575903 12939.851708 12657.957260 12400.562570 12181.949865 11962.507404 11746.644666 11556.912745 11343.224576 11029.059669 10632.600680 10207.080411 9801.991620 9518.101823 9435.626182 9482.651039 9526.155322 9510.167742 9428.742738 9301.392662 9164.869976 9038.832410 8921.945405 8801.347350 8654.284433 8459.738819 8211.282829 7902.773479 7535.193360 7136.529969 6734.836521 6342.954805 5980.308341 5660.049161 5363.651418 5044.047404 4653.055967 4188.143577 3701.705924 3258.700281 2929.356861 2823.069665 2677.971589 2478.612368 2167.078931 1928.588259 1769.656313 1636.184679 1493.844076 1380.786685 1292.239769 1232.141888 1198.490473 1172.804444 1152.612061 1133.351973 1115.635524 1099.532180 1084.903702 1071.555742 1059.281589 1047.876786 1037.142351 1026.875967 1016.832955 1006.543347 995.315605 988.740035 2769.393830 2655.195054 2473.733706 2223.552175 1992.628018 1810.090676 1666.556673 1540.504625 1426.246833 1331.672068 1260.397858 1214.915101 1185.065289 1162.813204 1142.925860 1124.836319 1108.408588 1093.478595 1079.864304 1067.376633 1055.828065 1045.038047 1034.836034 1025.063244 1015.577617 1006.289473 997.449510 991.470028 989.020711 2823.069665 2760.140975 2646.096166 2461.413784 2232.256583 2010.835311 1824.663842 1675.113257 1547.656110 1434.722837 1340.418721 1269.241002 1220.492214 1187.961027 1163.602505 1142.979028 1124.675648 1108.176454 1093.215551 1079.582635 1067.080400 1055.518918 1044.718327 1034.514566 1024.772827 1015.426592 1006.590156 998.767255 992.859956 989.950570 989.144334 988.740035 981.406453 968.311548 955.911832 943.691654 931.268554 918.523028 905.403785 891.884994 877.952789 863.600883 848.828886 833.641441 818.047607 802.060335 785.695960 768.973731 751.915362 734.544601 716.886838 698.968740 680.817914 662.462616 643.931478 625.253279 606.456743 587.570372 568.622302 549.640193 530.651140 511.681618 492.757433 473.903714 455.144909 436.504809 418.006583 399.672833 381.525660 363.586747 345.877453 328.418916 311.232171 294.338275 277.758443 261.514189 245.627479 230.120887 215.017762 200.342390 186.120172 172.377800 159.143432 146.446875 134.319762 122.795735 111.910614 101.702577 92.212319 83.483216 75.561475 68.496269 62.339869 57.147746 52.978672 49.894786 47.961647 47.248256 47.827050 49.773867 53.167877 58.091471 64.630116 72.872162 82.908607 94.832812 108.740170 124.727716 142.893693 163.337061 186.156954 211.452090 239.320130 269.856999 303.156170 339.307922 378.398582 420.509765 465.717640 514.092225 565.696769 620.587280 678.812364 740.413888 805.429988 873.905452 945.925817 1021.730585 1102.081111 1189.893770 1289.947659 1348.995426 989.020711 985.972174 978.388777 967.339183 955.657470 943.626797 931.261042 918.533461 905.420152 891.903449 877.971981 863.620234 848.848073 833.660233 818.065819 802.077809 785.712562 768.989349 751.929902 734.557988 716.899014 698.979661 680.827551 662.470950 643.938502 625.258995 606.461161 587.573507 568.624175 549.640829 530.650569 511.679867 492.754534 473.899696 455.139803 436.498642 417.999380 399.664616 381.516447 363.576554 345.866289 328.406785 311.219072 294.324200 277.743378 261.498112 245.610363 230.102697 214.998453 200.321912 186.098466 172.354798 159.119059 146.421048 134.292389 122.766715 111.879841 101.669935 92.177686 83.446463 75.522467 68.454866 62.295924 57.101111 52.929193 49.842309 47.906017 47.189318 47.764651 49.707859 53.098117 58.017823 64.552453 72.790369 82.822584 94.742474 108.645450 124.628569 142.790098 163.229022 186.044504 211.335291 239.199079 269.731825 303.027038 339.175031 378.262168 420.370097 465.575014 513.946951 565.549125 620.437374 678.659705 740.255974 805.257744 873.688268 945.562289 1020.882137 1099.605492 1181.281777 1263.050598 1320.719304 1343.512740 989.144334 988.087992 984.187810 976.534751 966.606998 955.400051 943.534596 931.220514 918.508327 905.399286 891.883617 877.952368 863.600755 848.828847 833.641429 818.047604 802.060334 785.695959 768.973731 751.915362 734.544601 716.886838 698.968740 680.817914 662.462616 643.931478 625.253279 606.456743 587.570372 568.622302 549.640193 530.651140 511.681618 492.757433 473.903714 455.144909 436.504809 418.006583 399.672833 381.525660 363.586747 345.877453 328.418916 311.232171 294.338275 277.758443 261.514189 245.627479 230.120887 215.017762 200.342390 186.120172 172.377800 159.143432 146.446875 134.319762 122.795735 111.910614 101.702577 92.212319 83.483216 75.561475 68.496269 62.339869 57.147746 52.978672 49.894786 47.961647 47.248256 47.827050 49.773867 53.167877 58.091471 64.630116 72.872162 82.908607 94.832812 108.740170 124.727716 142.893693 163.337061 186.156954 211.452090 239.320130 269.856999 303.156170 339.307921 378.398579 420.509755 465.717607 514.092118 565.696421 620.586144 678.808662 740.401816 805.390622 873.777066 945.507107 1020.364347 1097.635486 1175.150821 1247.086490 1304.054919 1332.935582 1340.495841 1348.995426 1419.315979 1546.702584 1668.979184 1790.250345 1913.749429 2040.301334 2170.162951 2303.420926 2440.112701 2580.257828 2723.859347 2870.893909 3021.300122 3174.976461 3331.806889 3491.741305 3654.965244 3822.192530 3995.095792 4176.841907 4372.631646 4590.040060 4852.154906 5149.899252 5460.010496 6087.917314 6532.440088 7053.658316 8257.843841 8965.662895 9529.182481 10740.399259 11710.114065 12420.872883 13070.835452 13694.530246 14951.742784 16251.454100 17480.868603 18691.915032 19714.955438 20551.369079 21380.483877 22361.548037 23334.738948 24188.974354 24367.747904 24848.633027 25884.746213 26728.252705 1343.512740 1373.729377 1447.568090 1555.903149 1671.388725 1790.875284 1913.840553 2040.231245 2170.043624 2303.286471 2439.973697 2580.118014 2723.720863 2870.758865 3021.170679 3174.853784 3331.688707 3491.617598 3654.811487 3821.959357 3994.690851 4176.085125 4371.081082 4586.295896 4833.046015 5130.731815 5482.063792 6002.306720 6508.593689 7072.774382 8014.537176 8821.747319 9483.285592 10404.662669 11324.004107 12139.073879 12893.687515 13644.730760 14808.713506 16099.380731 17352.719064 18585.219152 19635.617496 20537.106535 21474.459364 22396.174228 23224.801688 24099.969038 24807.638821 25365.472382 25955.227464 26190.751735 25939.562441 1340.495841 1351.368584 1389.935918 1465.043189 1562.875216 1673.859208 1791.756632 1914.212812 2040.443968 2170.206854 2303.434440 2440.116862 2580.259110 2723.859744 2870.894032 3021.300147 3174.976379 3331.806429 3491.739330 3654.957536 3822.164165 3994.996074 4176.505152 4371.532671 4586.674184 4830.650555 5122.515890 5491.081563 5947.465458 6481.225171 7134.833201 7916.630422 8703.737511 9486.742291 10344.202152 11213.201185 12028.075128 12790.324804 13664.829013 14781.890492 16013.892396 17247.336733 18428.134648 19488.656494 20440.301743 21352.944606 22204.205044 22967.780149 23682.637896 24332.750812 24843.175212 25267.335052 25604.872253 25729.727172 25751.360410 9056.857776 9149.890779 11036.142290 12029.709566 13245.536496 13362.607812 13312.580096 18850.214926 15615.328170 12398.856456 19851.038636 20211.983941 21137.637529 22568.361769 22811.963602 21802.383701 23642.142730 23677.819603 23991.978857 25132.325400 11306.906044 16385.400796 11464.203596 17353.663016 14682.730601 13298.055258 14319.445631 17639.739286 18337.877582 18444.988832 18886.820048 22073.770791 22791.726444 22936.322452 22781.379533 21661.290155 23697.723995 22818.895289 24328.670644 24627.857810 14784.502042 16745.531042 11723.005909 19506.935442 13905.631104 16367.497551 16808.818675 23562.617827 20388.704766 20683.594094 21348.218393 21739.351184 21157.052565 22796.065251 22919.898430 23895.626506 22993.939757 22922.744777 24452.802404 22830.806566 18426.472092 20525.984518 14791.585840 17210.358811 16997.588686 22392.339595 15281.693541 20599.609423 21032.234614 22525.292134 22674.230580 24431.716818 22927.383624 23475.486946 22103.609183 22716.310936 24865.299232 23700.147496 25554.996411 24953.995889 19975.639219 22341.892427 15664.007976 16325.336379 21526.595858 19562.254593 15299.947308 21399.938031 20049.855093 15348.054831 24133.817428 21370.292354 21868.306620 24345.908323 22685.943485 23003.931437 22876.969379 25320.275561 25345.853297 25496.246030 12154.975555 18237.400506 13609.226708 13706.661565 16061.426721 17163.513393 19704.850789 23671.349247 19136.817254 20036.057584 21442.470027 25488.393770 18064.500777 18630.299120 22029.379041 23904.835499 22405.749538 25686.223677 25728.830361 25538.136572 19930.858328 15886.541083 18270.113546 18261.804048 13793.588705 21910.875418 22336.421071 21698.690986 20829.952045 15842.671338 21560.561354 21694.089420 23501.248119 23836.219147 21654.926572 21762.849726 23343.339331 25383.627317 25256.638160 25036.130607 17580.180885 13800.594144 14744.872315 17051.715322 17179.492564 14478.893174 16254.637753 19803.175228 20926.019376 17010.936349 22905.591754 19622.944464 22068.508624 22328.835818 22130.401832 23490.828152 22151.464235 25394.200430 24109.748452 25170.923901 14226.197932 13208.754281 14853.083576 12522.993151 17420.378876 14090.412520 18182.293210 14731.629922 14522.974313 15957.502476 16119.420194 18330.849438 20342.670926 21537.388700 21611.848588 19206.888013 22908.574844 19566.780481 25108.478973 25356.360289 13578.183270 15236.825814 19394.855474 14390.121380 15724.689510 17822.866930 13385.775778 13798.801227 15754.502042 22086.600343 19831.969743 18688.496058 20880.241851 20958.322520 19740.077979 20847.051568 24100.490498 25304.346934 20725.781418 25303.011180 17573.782888 17828.585904 14250.337277 16182.666393 17519.088344 19908.014897 16119.613891 16303.819323 18100.528639 18449.883245 15621.128411 23708.115971 19387.779342 25119.788082 20647.671652 23358.030345 20876.583721 23737.877386 24860.467021 25261.849308 11918.841075 11851.814626 14091.423562 16611.579675 14080.041793 16091.843789 14827.450197 12884.644817 14721.969373 23635.083499 19594.373803 15568.284565 19768.407243 18452.195597 17858.257270 23264.175942 23220.016835 20567.783394 23508.058053 24894.002039 14413.195723 12878.393077 14458.297193 15216.224299 16176.035361 13696.577413 14305.368477 16786.328870 15417.631547 15821.291131 13745.487797 20810.357198 15013.193388 20843.160703 20729.546754 19684.035688 23877.172741 23960.620628 24753.052802 25008.168834 11497.150701 12170.168057 15319.418475 12526.163535 14902.169956 16639.316948 14996.622376 16530.570475 13008.226922 18637.219393 17440.503179 18752.829715 23400.024145 20469.371672 20588.093473 22105.001889 25234.133695 23379.182987 23383.961310 25046.256850 16080.486543 11218.961740 12465.864930 13297.828451 14988.102001 17629.121275 13899.341121 17916.997050 18479.009016 16466.039676 19882.293165 17078.695878 20672.703468 23802.634688 23620.136463 16908.372129 19459.032347 25161.971145 23849.360563 24702.812169 11683.590896 11545.017732 10829.062783 12203.074049 16032.213330 18618.239131 13705.319983 12871.008663 16841.905439 13543.970679 16607.902785 15155.968329 23611.664709 22120.942480 23823.824696 23316.992680 19601.892843 22614.204977 21879.490747 24539.700442 16695.032775 12425.253274 11321.631988 12145.075148 13987.154128 13981.039822 13799.312335 16438.992360 17415.373156 14484.994642 13843.862164 21068.317827 18763.922055 23486.543820 17658.138315 23503.912201 18799.666503 22194.762138 25573.661139 25975.499277 11007.921804 11990.671223 11495.886852 11696.567547 11958.769274 13015.563068 14057.819756 13439.068943 15042.580758 14293.288434 20840.709854 15684.543484 15471.491962 15204.671414 22411.601494 18898.799705 21757.297596 22671.900623 23168.463343 25250.236546 10226.806140 11133.928069 11227.303287 12267.733226 11786.258031 12386.555705 13550.909763 13727.093070 19471.691966 20764.177003 18319.469145 19357.731576 25261.108508 18659.014823 23277.445826 23658.123868 25292.999477 23868.368834 22311.462311 23427.557050 11714.339604 11764.343876 11495.387077 11853.935277 12909.000885 11901.691791 12141.075776 18260.395056 14816.126828 14447.386334 18636.526095 17353.168972 23262.979970 22266.491928 24778.226596 23861.972112 24261.132582 24774.343131 25418.031011 23268.726764 9599.273703 10972.732508 11721.143972 11480.706457 11785.346154 12989.519444 12984.306863 14366.428825 15250.231568 18754.776676 16614.890235 16273.894713 17589.758524 23211.529139 17868.582715 19608.617340 22197.196258 23485.746045 22985.865900 24593.567517 9239.523932 11484.691799 11956.297991 11486.400545 14560.823204 12705.729880 14217.226691 15843.070778 13771.326090 14078.482015 21904.962950 24724.030107 21911.146104 22214.983850 22967.494665 17699.959063 22769.679700 20893.285893 25281.741400 25298.449681 13951.158589 11919.059081 14705.670296 12178.381193 12635.260032 11936.185768 14235.068468 13703.286744 17589.603314 17018.272465 16594.451200 22088.007090 18387.446348 23692.088151 14761.898524 23639.515979 23133.310627 22849.862930 23530.119857 25327.777981 10975.106031 11878.552629 11976.762763 11817.545431 13192.584995 12022.145053 16333.834162 15049.390273 13674.405935 18487.022893 20608.211852 19626.920885 20599.325655 23104.785642 24588.328147 22869.637389 23338.715050 22239.086560 23443.215977 25079.611295 14504.570905 12837.785186 11086.548748 12114.246143 15261.289893 12494.505058 12855.758777 16743.382908 13102.865433 14562.423458 15331.346149 20696.895879 15888.725333 16255.877268 22174.348922 23777.370160 23210.158798 23507.825020 23296.644544 24178.522077 12341.513693 11593.130312 12916.174595 11632.142774 13136.255368 11886.678498 12420.714924 14118.025888 14912.842539 17289.545103 16739.351536 17228.146767 21848.941824 20752.426269 15418.186991 22887.258193 23655.921955 23250.366463 24949.062418 25079.190069 7729.510785 11272.947397 13719.193521 12274.505881 15013.182886 15376.212091 12750.188153 12734.653024 13493.312422 17186.128287 15487.608803 17393.664743 17420.831851 19493.005655 24153.551110 22924.917177 23155.856071 23261.098308 23965.305431 11821.722089 10791.437024 11434.992824 11027.220002 12935.604014 13548.712391 12528.487245 15279.987057 19055.159906 15867.121690 16167.754050 19655.016457 23820.207238 16328.811991 22272.344534 24622.394357 24597.057863 22107.612922 23621.997640 11808.854668 11162.361506 12326.947150 11849.701520 13242.182119 13410.051175 11874.020643 13625.921935 16139.014535 17596.718674 19262.169971 17258.194208 22139.383195 14613.741911 23107.777926 24297.659995 23081.779387 24196.207033 23368.907202 10302.722899 12299.482774 11537.670786 10997.957244 13052.806510 12302.278818 16025.296899 16758.651655 16562.419971 18387.760753 17753.415430 15691.573678 18190.788074 19612.657895 20761.023988 19448.077368 21788.442953 22183.692176 23106.242302 12188.098086 10858.532884 12639.335061 11992.036650 11682.118200 12035.814121 13875.544110 14184.964737 12733.873385 13310.912304 16491.992323 12878.911365 19753.322609 17283.975695 17423.226989 22217.371605 22841.317432 22897.241565 10400.608974 12191.968524 11210.024344 11678.094158 12869.297310 12431.316867 14882.040255 13356.425717 18327.623356 16299.269455 15241.777383 20454.761036 18407.145019 21915.941472 23449.924566 23033.689169 22382.400442 22918.114953 10597.293149 11843.642743 12021.316456 13790.083486 11890.889031 15780.043060 11974.515125 14361.887981 13620.535422 18469.596588 19459.849125 20987.527945 17569.973357 22417.803245 17283.632061 23754.143378 23078.141815 10141.769164 12125.429217 12015.072725 11708.052672 12740.344406 12648.411970 18698.040649 11735.183313 12457.599584 17428.723014 15138.714567 20391.363713 23525.732656 20741.579014 18548.458582 22118.223730 22492.423777 12184.404248 12002.514748 12766.194191 12127.689851 19223.968427 21342.380136 15650.428869 15473.138576 15557.994051 22416.911895 15447.378443 22662.662040 21717.178334 23299.023272 21496.846844 20852.433144 20809.710409 20809.384840 11406.044644 12580.118876 18403.788488 11638.015606 12430.793813 12574.257860 12910.618244 16226.516848 19986.520162 19296.218773 22625.054303 19279.641590 22691.957286 21423.086933 21412.842993 20774.095851 11769.387272 11803.279355 14289.832651 12161.840266 12856.790306 18224.789865 14347.194724 18385.208241 20273.878220 13062.044458 20401.803733 20958.034055 21959.389921 20714.053523 16098.376754 20799.489811 10927.774393 10988.511602 10916.052588 13653.521669 21824.657489 19091.246765 19213.696901 17453.493995 19121.173808 14150.402381 16378.004657 21620.518002 20292.592923 22365.397632 21979.422822 20786.572771 11950.710896 10303.686139 12561.932999 17470.156096 13282.646539 13359.980753 20075.155078 13254.259202 13271.361655 20441.143896 18632.976508 22473.056878 22065.764935 22041.453855 20462.229026 11080.153762 10874.373587 12973.177782 11393.738936 14424.563109 12424.991928 14493.759045 17157.220950 20951.842121 21340.242744 18767.927303 22814.102982 19594.745630 17458.308069 19706.056039 11133.009698 10628.210150 10651.652824 11195.725210 14153.168925 15121.530408 12493.732339 17648.053120 22709.278075 15239.901060 22122.781170 16221.233722 21441.463100 20846.293552 19026.920635 10609.038443 11015.640702 10233.185473 11743.974949 14544.699560 13137.379529 14707.216556 16737.926077 14486.722004 15174.139682 21176.404251 22511.911032 20376.295743 18801.227226 13133.071683 10981.161258 12808.461242 18650.728316 17970.215110 13697.749522 12341.053012 16821.964812 18387.206989 20848.703891 20090.592856 16751.595945 20095.163972 18783.800522 10690.980788 7419.160874 12904.646215 13362.062411 19731.981234 11107.716637 20624.260278 17824.893583 13036.793000 13840.980089 19734.343670 20454.456559 16605.134617 18437.686363 8936.502586 16533.353897 10972.194599 15548.086936 18701.405230 16591.885357 21693.487896 16304.107788 18663.467073 18343.019906 21622.749584 17901.566407 17590.577288 16736.513413 11473.917400 11814.641948 16374.385964 10321.916182 18570.512175 11794.656493 19245.365656 19278.625418 22658.519140 20629.911202 20132.650318 17332.684730 11640.654664 14048.438349 20754.398517 13633.584689 16999.052716 19150.085575 17693.920729 11049.162029 19594.623970 19373.727272 20144.606770 17069.095229 17234.334480 14004.986021 10983.682610 11499.914921 17198.298027 10824.589653 17395.514895 12753.443366 17013.196116 19565.430990 17227.908741 16068.450918 16841.905606 11292.998704 11115.029641 12043.640998 10563.243184 10390.091613 13711.792089 16336.279490 21558.272835 14481.142271 18363.758220 17270.691931 16494.241545 11014.754158 11320.733947 10767.556088 20159.541706 10706.966124 18282.389228 20866.700255 15034.037736 18695.222146 20390.960717 19254.705490 16491.987841 16493.504884 6050.950279 16136.556643 14531.717899 17119.282267 14238.272133 13110.784220 14774.677473 22421.428676 19213.598967 17474.693158 20801.688545 14967.075967 10181.357045 11286.688996 13285.736778 19643.600669 18357.002436 17156.609522 11190.297578 21730.141157 12577.214029 15652.902940 8884.424564 12114.849771 11031.958299 11900.114224 9161.725806 17712.978067 16405.788214 20541.210365 15095.618772 18547.023432 15281.516726 10724.336732 16178.581753 11568.980626 14702.936883 14943.986879 11534.255522 15450.237655 17897.249744 16236.964304 14707.061953 13535.457048 14030.118724 11008.826212 16349.819873 16475.300953 15688.550440 16252.523592 21454.578842 21574.249473 17539.669809 1359.126732 8706.680720 5740.477581 16254.284724 13247.075416 17300.577524 13453.849056 21073.897772 18417.382495 14523.468152 5303.175748 14287.092190 13951.649940 13591.309313 18048.641190 16020.630547 18044.818812 18173.541763 14388.757517 8767.158340 9077.358191 14970.689863 12853.871025 13934.566537 18516.367839 15095.273004 13214.553591 14536.222460 10648.010761 10856.065294 14143.543622 15311.674449 19904.205858 17253.452442 20019.288210 18721.851316 13898.230147 10982.547178 13885.899905 13242.337576 14578.062278 13953.294282 14758.617279 14652.259904 21616.382034 6202.413496 9786.412919 9677.737693 13736.466638 18249.072399 14773.812972 11714.707358 15567.690232 4498.953651 14216.253240 13927.612784 14605.437747 13383.645847 13580.539486 18425.759442 12823.285496 9391.429835 6432.319963 13084.179784 15454.032791 14974.165570 17508.919421 13351.433426 10370.093133 11804.370849 11213.215235 11396.048785 17121.136755 14631.858053 12583.187799 11220.189203 10271.827469 15833.789502 5564.705278 14615.186345 15690.569375 12579.364479 12580.371981 8501.686842 13699.572580 16572.414926 11536.831861 11168.476552 16276.482163 1241.441566 11888.633596 15139.777583 17256.844144 13293.209557 18402.458078 10213.852917 15568.041103 12165.950210 12620.511791 12325.653699 11074.695427 1765.104801 13890.540246 11917.089160 16289.534701 11100.866103 9863.185755 14771.854602 14483.155392 12790.920755 17119.688480 6490.400321 11259.950129 10587.771317 8815.713079 11119.446920 10430.457088 10473.233660 10413.819738 13590.588897 10979.358368 6982.459743 10815.481000 12563.355438 1900.739582 10283.994617 9958.527445 8646.359706 11183.613063 12478.600135 13717.620370 8589.957436 11631.315289 7511.179557 10963.721280 10706.619746 11367.778561 10923.790641 11249.291072 15709.209867 8326.748576 9424.310341 12871.223716 9479.928289 13604.112238 9057.996669 8922.827771 10144.363770 13530.927743 12015.942901 12592.137911 10835.959152 11079.216532 11370.512724 13132.340197 10989.363352 14333.040565 5359.078332 13384.732353 6578.349447 6667.010390 12608.897629 10083.795113 12673.857648 10873.371168 11667.109174 12929.046691 12484.516860 12717.908957 13320.726183 11970.288051 17249.534669 14517.591002 12238.091637 11560.647222 12321.081928 13051.527375 13843.697505 8889.641023 11654.685125 13878.083555 15915.487381 12167.911487 17323.323375 18178.977364 13926.635627 12608.177542 11231.579629 10815.790580 13274.305323 12565.188020 11740.846178 11210.377173 10335.079632 10384.507790 11389.693087 12017.910965 15765.373651 11556.612145 11079.996277 17265.022631 17307.130026 14745.241417 12283.791193 11857.798185 13765.932805 14783.864829 10524.875442 11566.850436 13926.744395 11228.885507 11872.549478 12680.687875 13226.418397 15521.567951 14701.214303 12119.376781 12287.755529 11767.583963 16006.745203 12896.426108 21235.414921 12224.620626 12243.452572 11097.718907 12501.506837 11953.795246 11081.754892 13008.712495 12444.163769 14563.781040 12839.322253 12747.434058 12616.411048 14838.363689 14638.732356 12144.616994 11281.024746 10880.492755 12242.504755 11066.109278 11922.146547 12028.514787 11297.358024 13727.609032 13056.327934 13509.064409 13381.824895 13070.842956 12732.180679 13649.636381 16767.481873 11341.682264 10962.925075 11618.267098 13189.985033 12443.678218 12504.688133 12506.016455 12881.753150 15034.026819 12223.264470 11812.321770 11905.499490 12879.268912 13162.453586 17192.745469 10763.474786 11780.267207 12342.136011 12033.785876 11578.608164 12487.770318 13581.603510 12125.344087 12616.745890 15684.910183 12552.787398 12907.602217 13483.249974 13772.800001 13396.218147 11073.105952 11641.930577 11849.695998 12220.635757 12400.870297 13864.299422 12398.702496 12453.328651 12196.488265 12666.239107 13512.241001 14525.714185 14135.474043 17484.969286 16183.527820 13112.340215 11524.769268 11741.689313 11671.621820 11611.446007 12060.052321 12274.628835 12876.024241 15086.773446 15853.617618 12893.661598 12024.312918 12629.622189 12084.174970 15713.846151 12078.337127 11310.363540 12237.341658 11616.674757 11711.976310 13190.702409 12429.185854 14462.231596 12028.803128 11789.379990 11960.538319 13148.122297 14305.293022 12249.295895 13452.947380 11867.974153 11232.896527 12217.099538 11699.701952 11391.181770 11477.122728 11965.908736 12089.131020 11250.253848 11074.411600 11538.314299 13228.370391 12153.902293 11378.421189 12733.675740 12002.003744 11415.577526 11134.348852 11606.990328 10926.304859 12208.283845 12279.958498 11762.461315 11842.586017 3913.909258 10496.944003 11925.834105 11493.621083 13489.491303 11366.913944
</DataArray>
<DataArray type="Float64" Name="Velocity" NumberOfComponents="3" format="ascii">