<VTKFile type="PolyData">
<PolyData>
<Piece NumberOfPoints="2186" NumberOfVerts="2186" NumberOfLines="0" NumberOfStrips="0" NumberOfPolys="0">
<PointData>
<DataArray type="Float64" Name="Pressure" format="ascii">
 30530.612126 30204.160195 30371.488812 30169.110122 30051.632856 30128.501058 30136.661283 29990.449428 29878.886482 30007.470197 29918.528016 30032.961974 30289.512712 30411.863729 30673.671223 30775.672792 30818.840606 30646.374912 30640.162762 30486.671355 29958.280991 29822.338466 29546.365726 28541.740045 27112.607403 26450.486093 30498.759878 30700.407407 30545.079759 30189.334771 29989.542018 29984.216190 30160.085584 30478.366402 30615.492895 30357.940985 30072.965709 30229.012641 30688.263947 30958.985392 30877.524385 30660.589853 30631.120079 30807.212540 31120.512578 31307.260867 31192.370152 30774.838714 30250.927636 29773.080561 29174.032428 28291.671000 27241.767587 26849.441057 30470.423982 30490.381596 30672.787160 30938.005479 30989.242872 30884.200347 30659.891260 30484.748149 30504.282631 30551.794938 30513.471941 30553.213580 30793.097173 30988.040313 30971.818776 30963.674438 31072.620979 31197.424502 31234.390073 31184.381594 31046.510242 30789.898663 30545.330531 30285.286918 29851.647985 29196.453097 28327.795915 27481.661450 27189.811485 26450.486093 26716.784919 27737.357253 28238.269648 27938.476187 27192.133295 26154.758370 25252.038906 24923.688306 25153.158327 25083.493942 24629.305277 24180.106911 23670.529996 23098.872419 22502.571852 21715.144563 21280.207585 21034.841619 20644.563521 19970.530391 19821.031954 19616.694245 19141.446237 18618.766810 17981.520417 17293.866966 17227.217000 17270.606072 16524.701748 15098.403037 14220.962769 13781.732315 13728.073218 14084.962337 14178.193381 13379.061691 12584.043957 12145.845017 12259.581354 11980.742337 11200.740487 10897.328392 10721.562908 10138.426629 9646.627139 8941.963554 8687.398462 8431.218623 8022.014086 7699.454555 7257.218592 6735.144498 6204.457969 5928.351890 5852.715852 5784.100163 5297.621667 4382.318663 4082.510325 3889.017151 3716.989549 3357.217113 3383.596550 3464.722508 3575.952686 3742.766523 4100.304927 4235.022492 4399.434496 4458.251147 4057.505450 3469.435780 3131.095322 2951.867667 3204.125209 3569.615122 3130.643091 2725.091005 2390.196463 2237.012483 26849.441057 26892.205481 27516.771602 27867.426740 27683.849399 27193.470764 26528.000546 25905.969182 25688.479547 25539.765076 25159.330601 24796.671185 24308.764837 23703.398873 23108.568396 22639.896648 22248.198932 21745.327282 21161.572076 20703.469488 20311.383492 20029.253650 19663.652011 19108.334530 18520.234630 17919.853235 17352.117657 17019.027130 16692.888584 16134.970353 15428.807024 14849.336726 14391.985779 14247.601975 14299.948004 14168.614456 13584.324145 12744.396616 12266.831631 12154.670590 11901.502760 11409.757097 10934.284108 10500.346921 9910.155725 9364.165996 9020.994879 8652.054803 8174.958325 7721.323184 7360.627066 7108.439571 6777.447682 6407.253536 6249.007491 6184.254343 5944.700717 5511.093947 5079.093687 4723.163644 4373.334485 3885.307193 3590.382325 3524.398415 3566.510041 3811.404243 4107.683623 3944.411913 3740.785633 4013.639981 4183.426203 3976.870074 3703.042901 3526.209466 3522.445866 3529.223470 3367.508184 3039.178342 2674.309750 2407.179695 2322.989383 27189.811485 27190.558952 27457.807447 27653.066267 27554.645348 27224.075200 26819.681988 26455.753008 26135.565756 25756.647112 25278.579877 24823.832988 24383.277055 23917.981607 23445.657045 22951.824987 22437.621088 21881.351477 21356.291740 20905.270069 20470.483472 20013.649962 19564.054899 19085.826661 18574.205360 18069.376944 17624.604153 17269.866090 16925.507440 16515.990087 16053.696710 15536.952501 15016.429898 14636.182479 14365.063711 14008.157024 13484.033197 12865.793166 12335.404382 12011.088858 11773.779207 11470.898737 11099.358558 10673.523070 10159.580851 9593.612420 9077.430996 8604.898092 8139.544423 7721.131019 7378.806057 7114.829706 6889.216785 6673.501828 6493.203832 6333.743556 6118.267292 5808.529834 5460.430672 5124.702021 4758.403179 4311.869506 3889.800402 3643.852879 3595.842933 3690.016774 3839.699300 3908.985357 3895.895534 3933.489503 4027.933079 4071.050322 4019.442294 3910.583548 3799.162951 3688.491004 3520.970323 3266.528798 2959.069117 2660.744997 2439.165038 2368.809215 2237.012483 2109.647525 1895.580208 1725.744187 1616.625082 1538.727254 1463.845086 1408.191422 1371.547935 1371.139949 1426.720510 1495.029243 1554.632728 1605.914199 1649.771605 1686.249203 1715.264292 1736.823712 1751.052007 1758.176513 1758.497516 1752.331241 1739.859233 1720.538790 1692.521002 1673.405853 2322.989383 2238.343330 2113.265054 1938.287086 1773.576352 1647.335403 1559.244653 1492.491615 1437.790911 1401.844565 1393.722056 1422.495550 1474.287771 1530.476577 1582.190500 1627.798940 1666.827988 1699.011225 1724.249169 1742.577951 1754.144968 1759.187721 1758.015769 1750.996516 1738.556377 1721.286500 1700.834631 1685.643436 1679.740468 2368.809215 2322.379570 2239.089280 2108.356080 1946.002329 1788.262362 1660.322230 1567.756112 1499.305603 1446.722994 1414.159250 1409.375252 1434.372187 1480.209374 1532.689662 1583.140173 1628.410677 1667.321269 1699.418972 1724.555167 1742.755368 1754.168647 1759.043058 1757.718299 1750.651556 1738.534969 1722.660565 1705.641567 1691.505588 1684.678790 1683.084817 1673.405853 1640.460350 1579.115009 1518.620010 1458.011079 1396.350070 1333.750010 1270.548728 1207.132707 1143.881001 1081.147569 1019.255399 958.494559 899.121747 841.360556 785.402199 731.406575 679.503609 629.794822 582.355074 537.234445 494.460210 454.038868 415.958192 380.189277 346.688546 315.399701 286.255592 259.180004 234.089321 210.894093 189.500467 169.811502 151.728352 135.151326 119.980823 106.118144 93.466192 81.930063 71.417527 61.839424 53.109963 45.146950 37.871931 31.210285 25.091255 19.447925 14.217165 9.339533 4.759156 0.423585 -3.716371 -7.706811 -11.590929 -15.409197 -19.199547 -22.997553 -26.836608 -30.748092 -34.761529 -38.904733 -43.203949 -47.683967 -52.368241 -57.278975 -62.437211 -67.862890 -73.574910 -79.591162 -85.928551 -92.603013 -99.629502 -107.021973 -114.793348 -122.955460 -131.518987 -140.493360 -149.886658 -159.705481 -169.954798 -180.637782 -191.755624 -203.307336 -215.289553 -227.696357 -240.519143 -253.746576 -267.364700 -281.357288 -295.706561 -310.394456 -325.404714 -340.726211 -356.358370 -372.320482 -388.669932 -405.544605 -423.276961 -442.836468 -465.991148 -480.198702 1679.740468 1664.622109 1628.414134 1575.112689 1517.595526 1457.748060 1396.300670 1333.751412 1270.552807 1207.125714 1143.859730 1081.112070 1019.206737 958.434106 899.050956 841.280879 785.315052 731.313319 679.405538 629.693153 582.250943 537.128901 494.354209 453.933273 415.853776 380.086722 346.588443 315.302557 286.161832 259.089976 234.003302 210.812293 189.423035 169.738532 151.659889 135.087374 119.921344 106.063071 93.415429 81.883490 71.375007 61.800806 53.075086 45.115643 37.844021 31.185597 25.069615 19.429161 14.201108 9.326021 4.748034 0.414704 -3.723150 -7.711622 -11.593896 -15.410435 -19.199163 -22.995646 -26.833271 -30.743408 -34.755576 -38.897583 -43.195666 -47.674614 -52.357874 -57.267646 -62.424970 -67.849784 -73.560985 -79.576461 -85.913120 -92.586895 -99.612742 -107.004618 -114.775447 -122.937065 -131.500154 -140.474150 -149.867138 -159.685724 -169.934886 -180.617806 -191.735683 -203.287537 -215.270013 -227.677199 -240.500494 -253.728557 -267.347416 -281.340810 -295.690893 -310.379471 -325.390005 -340.710702 -356.339133 -372.289010 -388.599880 -405.350077 -422.668161 -440.669110 -458.958460 -471.934268 -476.846825 1683.084817 1677.473893 1658.044105 1620.707233 1572.004614 1516.476134 1457.348365 1396.145987 1333.687129 1270.529356 1207.126739 1143.879163 1081.147003 1019.255224 958.494505 899.121730 841.360551 785.402198 731.406575 679.503609 629.794822 582.355074 537.234445 494.460210 454.038868 415.958192 380.189277 346.688546 315.399701 286.255592 259.180004 234.089321 210.894093 189.500467 169.811502 151.728352 135.151326 119.980823 106.118144 93.466192 81.930063 71.417527 61.839424 53.109963 45.146950 37.871931 31.210285 25.091255 19.447925 14.217165 9.339533 4.759156 0.423585 -3.716371 -7.706811 -11.590929 -15.409197 -19.199547 -22.997553 -26.836608 -30.748092 -34.761529 -38.904733 -43.203949 -47.683967 -52.368241 -57.278975 -62.437211 -67.862890 -73.574910 -79.591162 -85.928551 -92.603013 -99.629502 -107.021973 -114.793348 -122.955460 -131.518987 -140.493360 -149.886658 -159.705481 -169.954798 -180.637782 -191.755624 -203.307336 -215.289553 -227.696357 -240.519143 -253.746574 -267.364693 -281.357265 -295.706485 -310.394206 -325.403887 -340.723475 -356.349307 -372.290449 -388.570357 -405.214157 -422.182757 -439.148725 -454.937753 -467.448469 -473.632273 -475.134957 -480.198702 -502.274615 -546.147255 -595.162890 -653.488399 -725.398957 -813.947884 -920.794557 -1045.877635 -1188.388416 -1350.006915 -1539.582926 -1774.663606 -2073.815596 -2439.882960 -2860.080696 -3206.040964 -1997.662810 -32.124804 2976.846473 4804.214227 5414.062719 4605.842226 4024.922525 4077.695964 4331.567049 4834.910105 5280.197040 5755.490108 6786.382519 7701.392065 8405.171659 9470.778805 10937.141950 12248.373673 13664.230662 15057.222358 16516.198745 18115.332525 19391.489632 20641.500519 21815.630226 23070.590872 24492.904186 25661.665307 26652.815595 27560.120790 28467.913988 29417.838265 30065.736808 30530.612126 -476.846825 -486.324542 -510.304381 -548.556101 -595.395451 -653.055262 -724.678289 -813.097895 -919.921753 -1045.008548 -1187.297404 -1347.964761 -1535.001480 -1764.428454 -2050.370283 -2380.026411 -2682.516786 -2793.167303 -2145.673909 -161.619944 2635.298026 4526.667416 4645.102533 4085.255020 3902.829424 4091.151155 4454.316861 4924.281608 5449.280987 6068.229897 6889.850701 7784.861943 8703.817524 9805.057986 11087.734055 12436.910782 13797.943904 15191.960843 16628.183317 17969.083146 19271.236824 20544.360392 21808.454022 23107.120667 24363.241649 25551.715352 26649.962816 27640.234251 28590.796268 29416.637673 30080.292487 30466.005407 30498.759878 -475.134957 -478.536045 -490.716451 -515.526488 -550.843878 -596.533277 -653.899584 -725.520958 -813.976634 -920.763792 -1045.714396 -1187.811251 -1348.219294 -1534.350186 -1759.932917 -2032.658273 -2323.642400 -2523.196552 -2398.834772 -1605.334823 36.003217 1992.160381 3345.195963 3748.941865 3739.668702 3825.677132 4105.760352 4516.387166 5007.346517 5567.676072 6229.219980 7014.845394 7891.514333 8856.336601 9954.982213 11203.106169 12528.903297 13857.511622 15230.670455 16626.278856 17953.756839 19237.757616 20507.156475 21808.093876 23115.676280 24350.693544 25525.996989 26622.075683 27635.556614 28530.502923 29233.241347 29783.646883 30182.690164 30394.320635 30470.423982 7627.592103 8099.796472 9138.400477 8505.994013 13130.639765 13842.912236 14837.923241 20181.631139 19026.392334 9188.787523 22203.583122 22673.576780 24232.051182 26058.987812 26243.825147 25439.447390 27106.119661 27688.408502 29500.116177 30270.734391 11016.824209 14376.859231 7321.286574 18722.298878 9499.018516 13341.671890 10225.729243 18845.786261 20987.434635 18941.576085 23944.101752 25294.638123 26670.618966 28375.636398 26755.153282 25093.959056 28950.953367 30743.355302 29942.362231 30408.405596 15153.150832 16837.184336 10280.563351 22063.828409 12174.690443 20355.092108 20490.287612 28139.666119 23464.833347 23892.992184 24686.379047 25607.497757 23773.017072 27439.290424 28717.283892 29978.308211 30355.840094 28311.793225 30635.428443 30819.981881 21803.683407 25467.748301 16605.047806 20747.233237 16957.920587 26639.045889 17380.497830 24199.523613 22933.997387 26337.687149 27007.887618 30839.934722 27583.123674 28457.890685 26443.122168 30716.914810 30686.747837 29697.327020 29701.979812 30524.635258 20881.128662 26066.348048 8708.008349 17550.274234 25040.567243 22332.438305 16988.122730 22936.298638 24846.870144 16542.747594 28030.090231 24711.721479 25817.808580 27900.827736 27542.064470 28773.790080 27531.178953 28646.050745 28423.290365 29867.585085 11533.504697 19016.710100 12910.317868 14128.218798 14982.103616 18027.242795 20928.478499 27725.750182 19925.446408 22171.403029 26239.845507 29600.327450 21690.527137 22043.202210 27208.693515 28603.379832 26646.861633 28736.080685 28798.413836 29586.282832 21279.389415 17818.354145 20103.548469 17732.961333 13949.640524 24076.959033 27295.253848 24030.513999 24730.582752 19218.847874 26190.038365 25286.778355 28334.069453 27529.559754 25989.778515 25355.708708 28428.006470 29390.247762 29734.289168 29559.733118 20966.399606 15460.298335 17890.443853 20619.435712 19181.733353 17608.756167 14013.131200 19416.357537 23410.460039 19651.851217 27029.651049 25260.751864 26752.017956 26647.509771 27297.760708 27668.809315 26489.596530 29437.620943 29029.123472 29820.041502 16095.847670 15834.616543 19691.481424 10791.035326 21361.838703 15551.889640 19859.217834 16209.027631 17214.779551 19382.299074 17606.769582 20991.967082 22940.979531 25188.947028 25953.252775 23129.893599 26164.435854 22722.425948 29521.855091 29565.693974 13061.056521 18868.175465 24317.254334 13146.606943 18662.598572 22640.440779 17361.247245 17506.169696 17076.975813 24326.843282 23078.887579 23118.816015 23410.554493 24637.086957 22466.440346 24736.470293 28860.475207 29216.920316 24236.757737 29381.229388 20222.350772 24177.634934 18055.189650 19159.382775 23245.552939 24651.757713 19246.160073 20044.230773 21278.093373 22101.767395 21658.299766 26306.529626 21910.406052 28461.963125 24827.927073 27966.305975 24103.145142 27800.603822 29675.096719 28692.326614 10269.508767 10146.950319 15027.756467 23250.820778 16999.831140 19241.927969 15364.996275 12861.688622 20015.733531 27310.090947 23427.732029 21958.765878 26984.932523 22434.779556 21217.201970 30286.799808 26883.191253 25953.645988 28526.792746 29921.576485 13459.589874 14170.957338 14135.070658 16932.855567 19610.848817 15323.775879 17378.639211 22800.278763 20852.415022 18806.291464 16696.895666 23840.893879 19309.590006 26319.695133 25536.787666 23790.878333 27679.686905 28955.258300 30697.889148 30204.102181 9289.317130 10118.111658 16223.770166 12000.873123 16575.873772 20083.660409 16898.858673 18582.147365 16780.382328 23587.808848 22395.485193 26428.777707 27581.062742 25183.506583 27430.928074 25730.858223 30557.258605 30872.778199 30359.582578 30800.685918 8582.501716 8404.026399 12326.470718 15997.165109 16045.875828 22183.199313 16794.000722 23257.751345 20523.220016 16562.874680 25539.669863 21168.999116 26551.812151 27163.294061 27189.321352 22105.951926 24335.527742 30015.732732 29396.350627 30848.836370 10157.809616 9164.958480 8925.103695 9592.509243 18053.018472 23725.983488 14547.811431 12480.217589 21508.231234 15195.778625 21684.110655 18336.384244 27915.571904 25480.505549 27815.032200 26454.570674 24153.890112 28666.894424 27639.325498 30423.888682 10982.191267 10697.466340 8858.624137 10651.628177 12988.126765 12063.027081 18067.377152 21272.672627 19775.206619 18285.169031 15029.221924 25709.728781 24110.083520 26867.019064 22743.261728 27173.732832 24880.922287 28907.209457 29580.029189 29845.355134 7421.744191 7489.520546 8205.956035 9249.076336 10586.956307 12091.636301 14238.372040 13495.480792 15805.319539 17097.276319 25117.157240 21072.015806 21548.360430 21536.352791 25881.285853 24183.226704 25338.469729 29154.083073 27606.495636 29654.600915 9862.672196 9601.276600 9264.434960 10862.035026 9179.739137 9764.235380 11204.295765 12185.148323 22468.850455 23559.567047 23793.451204 22647.052479 27576.007580 25063.733723 26539.199986 28490.885666 28449.723592 27552.876582 25982.660311 28063.331506 9102.001160 7308.534790 8785.853050 9863.235488 10721.053363 10471.497879 10361.148889 18867.272028 17899.842870 16729.456118 21795.142993 20239.124951 28255.035604 27740.907189 27239.872780 26749.892973 28984.836952 29725.099273 29699.600325 29241.324885 13930.972759 7359.175533 8860.560148 9159.966830 10169.103541 13664.196120 13870.067016 15500.947832 15794.031517 20718.266708 22605.068733 20294.264394 22857.160600 27020.830519 24394.673486 25564.764213 26772.728202 28087.193433 26142.406987 29801.821972 5037.465174 7819.168241 9127.680511 9240.602492 13021.244302 11293.471187 14713.186275 16792.819535 13218.494494 14421.989480 24124.014543 25197.554393 24342.043444 25751.768341 27191.096945 22201.128226 24162.485360 25157.363911 29544.625518 29861.710074 11822.600205 9500.317788 12154.819613 9683.957352 11306.226582 10638.900920 15319.287583 14333.445140 17700.038347 20007.508211 18749.977330 24839.289814 23057.432048 25961.271202 20335.118186 27889.093317 28136.216721 27919.412755 29888.949761 28874.818006 3485.044267 9509.130251 9343.570462 9152.535815 11605.728477 10124.045147 17863.975036 15453.415159 12327.930807 21816.378723 24286.033305 25437.885968 24225.733423 26032.897127 27625.370049 28617.247123 29859.767757 28142.382582 29248.815535 26974.125948 11238.045967 11828.324356 8730.322430 9750.492179 16103.425741 11644.928533 11912.522824 16988.051460 13867.576752 16795.942218 16869.086449 21578.112149 20016.586273 18747.827405 26627.752170 25334.425664 27212.082972 28448.996406 28113.892364 27626.336323 11256.068622 9283.640292 10729.456005 9099.753304 12737.107307 12612.470021 13191.996930 13622.011327 15553.723039 18836.252912 16967.713406 18842.206805 23080.764401 23806.340759 18558.253493 24459.960069 26875.069193 26481.061584 26743.835937 26675.706481 10102.479644 8023.442495 9791.028937 10396.799013 15444.100392 12275.192725 11566.156267 14169.152353 15825.820796 22679.015406 15189.124225 21212.685644 18888.839464 24278.737120 22861.185509 25755.700623 25800.868263 29156.153044 27652.114983 8824.323470 7522.626824 9770.445380 8476.735229 10081.551824 13913.243266 11670.009458 14810.417905 21554.885322 18131.844167 21578.975974 23120.289941 24759.315424 19542.775089 23534.538562 26097.852222 26916.379409 25605.778161 27882.601467 7964.894630 8694.710051 12171.773797 8972.138001 13686.155609 12503.902428 10027.938885 13691.856298 16034.860102 16806.923545 21054.215316 15700.525451 22523.676339 17654.848106 25586.314420 25120.545788 25884.511559 25905.747241 27421.558535 7076.904168 9643.415480 10202.145712 8966.371557 10767.300749 13621.984131 13894.752383 13781.954251 15918.505094 17916.209488 16163.145107 20879.312630 20604.197408 22671.764692 23530.144397 22993.805516 24004.475494 26761.013802 26812.700205 8755.529880 8244.919358 12686.483952 11669.904154 9001.698950 9578.582511 14480.585871 14710.848351 13017.127438 13926.305504 20291.193338 16133.499990 19865.050770 21059.754807 19022.245084 24371.821442 24730.360628 25450.033895 9110.934897 8289.565086 9373.520496 11003.120807 12313.660119 11664.496483 12925.165679 12260.942659 15361.001845 17312.306545 15599.759089 20477.000028 22163.701044 23313.466203 25532.181394 22044.255740 24675.538677 24622.224759 7057.234889 9051.045210 9070.475216 13984.510135 10519.308506 12722.399137 11038.702431 14796.971489 16173.532922 14698.672091 17657.381236 21022.081100 18917.726680 23090.577172 22462.858261 23817.873770 26506.875819 7668.611060 8262.695819 9189.495284 11350.874789 12632.226372 13028.930201 18724.925587 11567.751795 10614.777426 17251.856991 18372.339643 21091.053009 24589.906625 23599.734235 23582.475240 25097.603715 24730.260056 10625.723813 9400.176377 10304.163630 10115.734839 16022.915975 19602.199631 14898.054218 12278.311597 13309.988703 19536.176933 17158.592894 19838.978947 23516.914093 24131.969163 19987.046955 23274.298600 24686.421095 24747.937957 5817.614303 10186.597104 16797.859502 9532.126579 9792.996175 10776.010503 14518.220541 17106.280027 19958.974409 22794.255863 21364.440161 21520.873506 22943.336250 21416.899007 22917.733429 23667.933937 10485.217667 8104.169722 12050.963710 10625.163748 11077.298680 15094.335538 15281.257004 17482.407315 13952.487389 13492.827120 19046.772601 21252.880686 22847.556821 22532.167950 19400.695724 21832.020481 8058.648630 8562.951703 8422.366645 11041.649218 19267.598476 15846.149189 16731.462148 17072.623518 14122.963680 13588.101090 21212.306690 19545.206554 22429.488349 23940.777051 23571.643307 22981.800155 9057.061685 7821.512566 8912.767725 11849.085537 11770.433244 10413.475533 16278.287906 9308.753491 13741.698149 17439.933500 18606.633004 21655.613716 20110.180959 19538.769002 21764.585329 9064.440821 7494.031665 10841.617654 9653.184439 13382.664642 10376.149802 12668.508835 13091.610633 18303.782879 19032.800013 20651.818830 20384.674406 19586.816301 14931.047011 21103.667616 4827.553846 8571.898713 6758.467429 8265.957691 12259.505245 11995.534243 9372.014913 14278.167997 16625.880520 11786.096998 22638.967752 15196.284996 23386.654877 17779.255797 20799.540991 7861.095249 8925.814390 7982.286747 8985.017556 11505.391580 11418.261042 12952.962376 14521.406820 14365.191827 10589.156016 18895.294766 22335.087276 23046.621349 20524.031901 3119.484861 7520.771201 11521.373097 13493.630011 14948.497160 12069.868597 10655.124046 15258.362583 15295.630108 18015.857019 18152.105812 17533.907740 20827.200940 19904.175282 10068.975516 10563.244635 11517.587778 9696.489848 14646.101863 9222.839366 15869.350819 17708.453639 10773.168429 12766.607080 18443.374462 20684.927634 15460.143101 19690.169149 8960.138205 17196.815831 8570.878979 13172.472785 16419.135308 13772.855366 18651.796952 18128.272285 19129.885456 17766.815557 18165.491000 19447.977356 19239.496871 11634.939360 9370.861723 8647.926767 14436.711990 8203.409509 16369.446900 10156.962584 14615.065667 18660.060232 17623.270958 18722.471229 20076.661404 19124.433362 4242.165385 9745.626021 15877.427436 11744.203276 13854.097941 13216.720526 14806.225722 9901.100831 18199.564884 15537.181813 16417.651702 18358.129873 18572.406910 10195.667342 8299.572826 8143.729611 10083.482593 9672.950136 14685.548118 13153.201155 18246.152740 18187.130374 18290.678335 17412.515804 15686.702260 5964.988099 10336.952956 9523.607330 7680.927594 8398.005969 8882.685519 13448.452440 17035.248328 16598.682497 19909.440913 19317.095948 17374.377613 9056.055667 9424.871237 8435.376895 13814.307523 8099.905915 12662.125909 18427.334607 12527.019858 19728.876567 17903.748906 16636.595263 17314.620482 17277.194399 864.396659 10910.619818 13420.239671 12589.589198 12233.212645 11440.599544 10315.290898 19143.585126 14898.645815 11614.886596 18139.022624 9618.084479 9969.685539 3855.719175 11969.408657 15170.291305 10268.424204 11056.930056 8651.374543 19939.172472 11350.588454 16517.519859 4063.132491 9129.996810 9609.170223 8861.814064 9080.042513 13346.314437 13046.931888 17704.241653 14509.396367 16552.243420 15161.879902 3648.686802 11426.882254 9911.519612 9861.032527 11750.273740 9985.341897 9876.231651 14266.390469 11564.849512 13641.652007 7337.960701 10831.242512 9905.479886 11803.189404 12791.297845 11737.799664 18239.814326 17595.876921 17498.277978 13558.976501 1389.062203 8950.584992 10964.672337 10256.616076 12111.431515 12482.813328 12330.125831 18002.374202 18861.313709 13466.812122 14668.508182 7597.093759 12824.037023 9752.672295 12099.225078 11365.081546 11750.117668 12763.157459 13847.140231 6580.879236 8654.976716 9571.318641 9892.274978 10062.644607 13811.244903 10632.106887 11340.717285 13682.420491 7134.006451 9750.886063 11010.778130 11865.533526 12774.213254 11695.066925 14374.357654 15982.193046 12776.801307 4717.135578 7737.640940 3759.167478 10032.262430 10447.056671 10768.835598 13465.427031 17087.630816 9571.088069 9865.076095 8984.505443 9768.260699 12910.563909 11934.091059 10111.021139 10800.255122 3275.994150 8115.945273 10298.511066 8942.282242 10960.522507 9777.182502 16463.913634 12033.422062 3432.188269 7110.422667 9112.875685 9362.814907 11555.504412 11536.893196 8313.516142 10397.885794 10990.291381 5162.439759 10328.227415 11796.655316 8990.647542 10936.298636 5611.022043 3723.840626 11236.724960 4608.186342 10961.721914 11278.967860 10870.556646 10818.723229 12882.940661 6090.337039 11674.770718 8097.730751 8983.849089 11976.015142 1365.231050 8582.207345 9908.803955 10415.067602 9044.367008 12452.023077 3629.606315 10579.207856 8446.968814 11289.719067 10351.112298 8822.269910 1609.350577 8617.473866 7882.120100 11138.965902 8578.415389 3941.111061 8522.493003 10810.021238 9610.399787 12337.360962 1397.018090 3987.306831 5006.075068 7571.074527 7823.809664 11831.043446 3161.781750 7349.164113 9438.219639 9687.790339 3925.659137 4056.842964 7302.025080 1700.913461 3028.427381 9578.593249 6325.054071 9840.091447 6306.225186 7763.828225 5964.730949 4887.056655 4064.210184 5596.559174 3657.828486 3362.969905 5501.792000 4488.943195 9965.842913 2849.134033 3055.876572 5314.679692 4038.206005 7585.083650 3559.633265 3397.865206 473.748523 4488.198780 7933.698637 7890.997379 7759.252547 8013.199491 8718.455097 6886.213927 8232.999990 8354.491694 4339.681651 9928.940270 5333.151893 5642.496705 11755.863960 8223.011758 13531.185527 8294.196687 10372.884770 10053.682517 9375.562470 12932.338953 10035.983337 9641.607943 17254.826244 13075.081996 9756.196508 10181.518642 10952.179932 11157.690784 9448.591908 7509.610995 8813.089398 11615.102495 16035.601356 11149.499327 19512.218772 18579.732888 11352.388132 10869.383405 9925.885379 8663.132188 12068.855839 11761.274013 9911.471912 7674.221472 7772.598362 7974.575203 9115.863860 9326.974721 14470.775468 8650.540163 8393.152973 16465.850762 18577.600486 12938.153316 9116.511021 8362.407374 15078.898256 15630.967105 8043.996558 9232.436044 8561.680569 9296.119565 10622.868075 12424.022152 13137.649490 15470.992033 14587.366395 11119.714083 11700.605712 8983.894340 15210.219105 11812.372036 22180.797473 8711.490362 9537.234654 8214.551247 10148.891229 8685.402402 8380.775432 12438.762481 10110.909154 13756.777506 13137.700517 12434.641482 11126.443860 18777.960506 15780.394452 11611.872425 8681.698225 8162.221497 8781.528698 8023.466118 8374.130987 9667.402221 8212.670684 15893.332258 11194.732312 14748.812663 13616.004086 13718.519760 14887.393613 15302.974486 17984.512480 7363.073910 8414.873376 8074.312205 11462.909913 10006.384637 10997.561975 13851.752878 11595.773147 16747.254677 11985.709882 10126.144645 10418.515956 13553.835790 15135.469473 21192.148145 8427.185122 7916.248224 9042.698267 9350.602409 7687.973028 11910.402259 13765.333254 8893.558053 12553.820501 19228.973886 13461.823430 14617.088228 12542.276945 12821.034807 12294.508785 8708.981592 8532.822536 8884.894974 8978.211732 11070.770766 14693.987434 10251.284836 13470.431366 8462.164313 11254.189005 15377.518543 17479.748554 14445.198989 20610.965578 19723.111628 7209.345897 8485.433271 8405.886735 8568.599684 9275.514737 8617.076916 8755.522304 12123.581332 15965.311619 16425.227858 11146.685105 11345.430712 12946.005476 11564.257161 20195.611142 6339.479230 9108.344589 10074.730098 8702.828718 8900.074003 12336.264999 10141.673754 18356.864869 9384.085142 8307.640079 9260.800398 14708.636764 14015.427662 9762.034725 13608.056460 8486.840823 8078.956885 8828.914780 9241.100168 8708.655269 8625.196130 9162.222985 11181.579708 8778.870055 8604.344334 8607.896490 12637.731290 9345.035885 8437.008525 11217.986035 8504.400861 7897.587411 8168.922847 8200.525958 8559.009309 9599.228660 10208.576591 8153.997243 9643.041814 13777.695246 7981.206251 9687.458771 8391.257591 9885.937816 10137.550673
</DataArray>
<DataArray type="Float64" Name="Velocity" NumberOfComponents="3" format="ascii">