<VTKFile type="PolyData">
<PolyData>
<Piece NumberOfPoints="2186" NumberOfVerts="2186" NumberOfLines="0" NumberOfStrips="0" NumberOfPolys="0">
<PointData>
<DataArray type="Float64" Name="Pressure" format="ascii">
 25272.257804 24172.354335 23204.329286 23420.939698 23922.380765 23730.020895 23842.880068 24245.069507 24619.833441 24982.786976 25804.128348 26814.994507 26868.152564 25919.240960 24913.128891 24474.399136 24224.206812 24318.413440 24939.130242 25378.806384 25147.486796 24570.329574 23573.177768 23071.611538 23710.386778 24907.507980 27555.691903 26531.772080 25697.846786 25477.518021 25646.276279 25681.749217 25553.694041 25667.987983 26087.343690 26480.173796 26647.500992 26924.568687 27414.951297 27629.643600 27417.167080 26895.723217 26340.165403 26093.739388 26304.887794 26723.351470 27218.241782 27134.342153 26442.251644 25429.028238 24824.962728 25058.690014 25863.827799 26506.315755 28566.497868 28177.654195 27385.437914 26640.684463 26347.752740 26345.460437 26364.225798 26438.713170 26603.786368 26861.081535 27094.954316 27260.486594 27566.878218 27976.775091 28185.428809 28083.135684 27751.935626 27364.180718 27151.263328 27197.384824 27430.480850 27713.643975 27801.133654 27411.210715 26708.949003 26238.028321 26400.109153 27126.797031 27610.487821 24907.507980 25244.220745 25101.665097 24292.304918 23777.552986 23529.634111 23316.631856 22716.172469 21819.055430 21323.466605 21873.895316 22157.765656 22248.340212 21935.579592 21846.997665 23142.598355 23553.334775 22682.662391 21868.313817 22237.682953 22992.012839 23279.023153 23715.366893 25010.628038 25221.238685 24008.923477 22020.129325 21297.156035 21491.638498 22393.429465 22461.112720 21071.867636 20600.310892 20837.102995 20801.842754 20014.280170 19189.016217 18199.138511 17247.829462 16120.325125 16241.666312 16070.524977 15610.720939 14829.981975 13854.372848 13007.827929 12843.710124 12733.599858 11214.838893 8413.562711 6788.502989 6388.151365 5702.856783 5084.021130 4487.053980 3873.452871 3454.832125 3047.970084 2682.773263 2390.568682 2174.995001 2011.947268 1921.413684 1841.260655 1722.352313 1598.740013 1478.315217 1360.818844 1246.001009 1133.795939 1024.505643 918.598188 816.539173 718.703882 625.334366 536.505844 452.062197 371.445681 293.016115 215.905424 177.835016 26506.315755 26526.805818 26525.620509 26073.205646 25501.977887 25075.326669 24874.135384 24380.397638 23781.393482 23375.296680 23190.422178 23418.650893 24100.058408 24326.856883 23975.360897 24125.400016 24473.429115 24072.500341 23667.469719 23769.165205 23931.587370 23911.976916 24020.228841 24713.233982 25035.742442 24061.155868 22757.478897 22264.376983 22454.424379 23087.532570 23298.468400 22388.864765 21539.225631 21469.765391 21212.258456 20530.862625 19583.817860 18538.462153 17745.991010 17117.931231 16756.411945 16629.484270 16026.829578 15021.564144 13772.515405 12676.744892 11876.992799 11119.787598 9767.919447 8174.786805 7205.433469 6477.519869 5721.691156 5045.418974 4445.203204 3887.302323 3434.390895 3053.044341 2691.910859 2403.026602 2189.526835 2033.154546 1916.564212 1805.182611 1685.802403 1564.520057 1444.974297 1327.836897 1213.100068 1100.971136 991.898367 886.399130 784.940233 687.881260 595.454525 507.764450 424.801975 346.510453 272.770801 208.943287 183.687539 27610.487821 27621.206551 27453.499957 27093.258557 26596.976842 26172.947396 25834.709511 25422.486178 24971.114163 24664.358159 24535.767689 24664.433089 25044.658594 25305.232544 25351.572908 25369.910590 25381.854745 25157.505038 24862.081529 24720.166837 24629.162623 24472.847578 24380.815295 24503.850577 24632.346031 24344.228824 23747.360731 23329.032216 23333.826006 23626.865776 23799.029301 23433.055837 22710.516560 22107.881502 21608.775129 20977.207282 20179.127334 19301.566262 18474.983946 17788.771391 17246.056806 16857.463269 16353.941387 15491.290155 14315.014647 13034.581991 11856.426336 10832.190924 9823.913766 8772.607647 7842.508878 7004.350880 6167.951011 5393.115454 4728.519531 4157.092739 3660.116743 3235.745889 2867.947732 2560.378118 2321.431556 2139.117456 1994.659949 1868.979242 1748.177656 1627.903150 1508.714708 1391.419576 1276.241765 1163.381158 1053.237405 946.323086 843.143561 744.124867 649.587891 559.758341 474.821843 395.067078 321.250956 255.040134 204.295394 187.637749 177.835016 155.730444 128.152505 105.959092 87.425175 71.760981 58.562236 47.507188 38.309137 30.707826 24.468303 19.380677 15.259518 11.942776 9.290369 7.182485 5.517604 4.210350 3.189433 2.395707 1.780316 1.302862 0.929277 0.627247 0.369932 0.244657 183.687539 171.693589 153.121622 129.640178 108.540495 90.357594 74.795292 61.565243 50.390834 41.013554 33.194737 26.716708 21.383223 17.019284 13.470457 10.601823 8.296712 6.455174 4.992281 3.836378 2.927416 2.215373 1.658780 1.223372 0.880932 0.608774 0.393903 0.263601 0.209245 187.637749 180.773822 169.190856 150.837052 129.142486 108.648080 90.537680 74.944360 61.669848 50.457011 41.049945 33.209102 26.715373 21.371170 17.000365 13.447613 10.577281 8.272104 6.431618 4.970474 3.816697 2.910008 2.200242 1.645913 1.213030 0.874460 0.610611 0.411578 0.276228 0.210245 0.190170 0.244657 0.195568 0.129037 0.087990 0.061003 0.042394 0.029381 0.020262 0.013893 0.009467 0.006409 0.004311 0.002881 0.001913 0.001262 0.000826 0.000538 0.000348 0.000223 0.000142 0.000090 0.000057 0.000035 0.000022 0.000014 0.000008 0.000005 0.000003 0.000002 0.000001 0.000001 0.000000 0.000000 0.000000 0.000000 0.000000 -0.000000 -0.000000 -0.000000 -0.000000 -0.000001 -0.000001 -0.000002 -0.000003 -0.000005 -0.000008 -0.000014 -0.000022 -0.000036 -0.000059 -0.000094 -0.000151 -0.000238 -0.000375 -0.000586 -0.000910 -0.001403 -0.002148 -0.003268 -0.004938 -0.007411 -0.011049 -0.016360 -0.024061 -0.035149 -0.050999 -0.073497 -0.105204 -0.149568 -0.211199 -0.296202 -0.412596 -0.570823 -0.784360 -1.070449 -1.450948 -1.953316 -2.611722 -3.468283 -4.574407 -5.992207 -7.795962 -10.073541 -12.927729 -16.477355 -20.858099 -26.222830 -32.741353 -40.599351 -49.996401 -61.142882 -74.255712 -89.553030 -107.248492 -127.547571 -150.653607 -176.809304 -206.454624 -240.945705 -282.646563 -308.196674 0.209245 0.198900 0.164221 0.119820 0.085217 0.060005 0.041961 0.029153 0.020124 0.013802 0.009404 0.006366 0.004282 0.002861 0.001899 0.001252 0.000820 0.000534 0.000345 0.000221 0.000141 0.000089 0.000056 0.000035 0.000022 0.000013 0.000008 0.000005 0.000003 0.000002 0.000001 0.000001 0.000000 0.000000 0.000000 0.000000 0.000000 -0.000000 -0.000000 -0.000000 -0.000000 -0.000001 -0.000001 -0.000002 -0.000003 -0.000005 -0.000008 -0.000014 -0.000022 -0.000036 -0.000058 -0.000094 -0.000149 -0.000236 -0.000372 -0.000581 -0.000902 -0.001392 -0.002132 -0.003244 -0.004903 -0.007360 -0.010974 -0.016253 -0.023910 -0.034936 -0.050703 -0.073086 -0.104637 -0.148795 -0.210151 -0.294793 -0.410717 -0.568336 -0.781095 -1.066196 -1.445453 -1.946274 -2.602771 -3.457000 -4.560303 -5.974727 -7.774484 -10.047381 -12.896151 -16.439585 -20.813342 -26.170303 -32.680312 -40.529134 -49.916459 -61.052771 -74.154963 -89.440556 -107.120530 -127.390823 -150.422582 -176.350133 -205.246293 -236.952720 -270.164132 -294.068913 -303.275405 0.190170 0.189107 0.176583 0.147513 0.113859 0.083534 0.059680 0.042002 0.029265 0.020228 0.013883 0.009464 0.006409 0.004311 0.002881 0.001913 0.001262 0.000826 0.000538 0.000348 0.000223 0.000142 0.000090 0.000057 0.000035 0.000022 0.000014 0.000008 0.000005 0.000003 0.000002 0.000001 0.000001 0.000000 0.000000 0.000000 0.000000 0.000000 -0.000000 -0.000000 -0.000000 -0.000000 -0.000001 -0.000001 -0.000002 -0.000003 -0.000005 -0.000008 -0.000014 -0.000022 -0.000036 -0.000059 -0.000094 -0.000151 -0.000238 -0.000375 -0.000586 -0.000910 -0.001403 -0.002148 -0.003268 -0.004938 -0.007411 -0.011049 -0.016360 -0.024061 -0.035149 -0.050999 -0.073497 -0.105204 -0.149568 -0.211199 -0.296202 -0.412596 -0.570823 -0.784360 -1.070449 -1.450948 -1.953316 -2.611722 -3.468283 -4.574407 -5.992207 -7.795962 -10.073541 -12.927728 -16.477355 -20.858097 -26.222826 -32.741337 -40.599300 -49.996235 -61.142343 -74.253963 -89.547351 -107.230054 -127.487702 -150.459218 -176.177865 -204.408597 -234.202375 -262.888158 -286.057761 -297.672735 -300.539287 -308.196674 -343.579054 -408.457633 -471.467934 -534.257639 -598.403427 -664.501156 -733.070160 -804.648830 -878.910296 -951.518273 -1013.892041 -1062.705848 -1124.641941 -1205.028648 -1292.188849 -1351.526795 -968.748866 -547.325409 -950.296107 -1304.167345 -2051.379648 -3366.171271 -3675.873437 -3308.157772 -1731.252842 -389.727663 384.072825 -1018.178696 -3927.296081 -5468.379753 -5130.056107 -2258.471438 944.754131 1964.333957 3336.424859 4697.647497 6911.608853 9051.545513 11029.071618 12193.376894 13247.773413 14697.788107 15991.071061 17372.111046 18744.822195 19902.908108 21185.357719 22243.183651 24027.956185 25272.257804 -303.275405 -319.121293 -357.134912 -412.907854 -472.616051 -534.539925 -598.416628 -664.413186 -732.916329 -804.451021 -878.972163 -952.986360 -1017.225533 -1065.821472 -1116.467465 -1199.887778 -1302.262049 -1343.333193 -1205.354680 -933.669858 -1233.760094 -2189.458116 -2746.932636 -2816.395469 -3100.657013 -2582.245397 -1059.255514 -25.631262 25.840644 -773.671803 -2005.625420 -2595.304740 -1522.807437 -159.195538 677.238596 2210.131000 4002.144568 5613.454694 7437.490062 9335.932938 11005.300817 12474.095009 13950.904751 15487.227516 16872.267587 18168.565105 19663.458639 21211.904266 22729.139494 24193.358857 25358.405815 26441.880189 27555.691903 -300.539287 -306.403670 -326.653873 -365.630913 -416.313090 -473.833722 -534.987386 -598.626035 -664.558968 -733.050002 -804.577749 -879.137448 -953.574001 -1018.807463 -1068.474465 -1116.669211 -1191.818579 -1298.525966 -1389.187961 -1407.289357 -1416.126561 -1696.648119 -2277.663151 -2501.331825 -2076.410932 -1403.234299 -619.458625 -22.748227 318.616080 229.460025 -300.616309 -1001.719441 -1241.758576 -653.587601 253.263757 1316.356999 2796.719339 4474.851336 6111.650305 7764.486709 9456.185747 11092.111229 12704.933544 14316.006960 15897.080170 17391.198431 18813.711091 20331.660235 21941.591751 23480.960604 24878.274572 26045.829418 27171.334389 28121.531324 28566.497868 -6824.975101 -7695.139026 1318.647014 -360.668331 10368.482249 3181.009673 4230.643788 12641.020911 8227.623811 10038.293441 11678.042760 13094.576126 14975.300238 17024.046292 17553.151692 17862.331703 18388.278460 19346.014926 19889.742515 21589.471481 2544.685952 10035.042575 -1296.244103 11443.006638 8345.174737 8087.416435 5695.255622 14971.621176 12945.130318 13741.326297 14860.101691 17203.848843 18330.437337 17553.371732 17946.219405 18624.191596 18447.180138 19961.404418 20577.222185 21273.153003 12260.855235 9146.938092 3984.889282 14178.217583 11413.829623 11586.039823 11937.162198 17305.992568 16217.203677 15482.075056 14940.898222 15877.888892 16705.129953 19921.381946 20020.860745 20751.925104 18437.439813 19495.702107 21424.389559 20044.094274 11390.262499 14619.543779 10769.341011 16095.872300 12469.477272 16386.197714 14800.663973 15658.129506 14674.713078 17766.051138 16065.053670 19345.537283 17429.895229 19521.539699 19842.937334 20852.763841 22033.077278 20434.580834 21994.282966 22019.358030 11903.323160 15193.397491 12993.314265 13259.162884 14730.296633 12962.267874 13739.236309 17110.183833 17006.835431 13911.944519 18723.364374 17688.867296 18812.660965 20136.376243 19588.552520 19372.672117 19307.775357 20174.182297 20075.487992 21933.354743 9496.501105 14182.428301 9124.782027 13803.725187 13171.897013 16780.267851 16244.578086 19501.427220 17813.610978 17816.332700 16905.260446 21470.309484 19191.459942 18736.265410 21603.103869 19886.517935 22837.951994 21741.480741 21413.508375 22143.475967 12210.723564 11084.898070 14391.580429 12651.340402 13305.194095 16359.641583 18676.231946 17867.783231 18982.429840 20811.944481 20063.179831 19118.005373 19025.817411 20529.913934 19356.447644 21886.138443 21852.782296 20781.060975 22475.614890 21594.525052 11813.633671 12161.232062 12142.415002 16438.338069 13146.728419 16395.872848 15092.411163 14740.289786 18131.774653 18483.376068 20436.081346 19262.580974 20581.096464 22020.041882 21863.058356 23378.703961 22020.937147 23072.881424 22993.158498 22878.154138 11979.521771 8981.858744 14721.356080 10803.165686 12626.353050 14207.078138 16219.619513 14473.293997 11877.414453 17581.052876 16971.115263 16473.242743 17407.606083 20190.230549 22324.809873 19574.167044 20149.405217 21551.904614 23401.534683 24727.332036 6599.068378 10666.178078 12290.312645 8736.095736 10941.637156 13574.226587 13156.890048 14426.718426 14956.937263 17558.781848 15969.295931 17958.767625 20983.452854 19475.946446 18902.003351 21099.028369 22462.239813 23805.977034 21212.737177 25455.205989 9935.716148 11653.367740 12801.734127 10293.984200 15679.068335 14283.144321 12431.042540 16274.514875 15105.000055 16194.678033 15851.288497 19579.351417 18173.549549 20500.722661 18484.328291 21276.962151 19516.050874 23983.697624 25875.141274 23026.440615 6286.164789 4662.220468 10651.522796 8089.682524 10263.077844 12241.546711 12526.725093 10334.675498 15844.046351 16880.730748 18122.594133 18360.350851 19263.420935 17412.666713 19786.975957 20903.294474 20591.700172 21397.534359 20649.586935 25396.558149 6843.801647 7895.021829 9064.454167 11335.317243 11398.800122 13333.486949 13488.974303 15440.802113 15373.398378 13895.526842 16053.285111 18631.336876 17517.844849 19767.993733 18545.113084 19887.274178 21314.294486 22301.465310 23769.571538 24645.769616 4821.786727 5940.806491 8274.709557 6741.976405 10021.505359 11478.741146 8855.690743 12845.417191 13567.474263 17221.017936 17195.302047 18191.780402 19793.561423 19778.457434 20812.931146 19757.122333 20966.527937 20885.541550 23145.703245 23610.450974 8788.632022 1973.861373 4438.946798 4301.909269 9680.014448 13247.994910 13020.720890 14636.899216 15002.898431 15889.720015 17749.404125 16773.673066 18813.411614 19772.068491 20499.763548 19403.544274 18233.228856 22509.676048 22967.774476 22903.962904 1505.390774 384.208234 2814.939303 5834.012631 8500.692528 13862.738733 11566.946725 13633.065790 15511.631340 16149.311730 15956.037191 17658.020359 19417.969241 20763.076938 19790.780893 20785.781703 18524.564354 20837.159913 21579.282611 22557.680836 8809.712409 1681.603596 2588.529802 4128.647094 9968.654382 8023.012721 10329.784144 14765.839054 14355.392999 15443.872170 16034.601731 17143.950982 18510.842502 19612.393291 17408.408998 21097.566969 20285.378525 22162.874482 22416.091585 22572.949831 2548.899341 1314.429031 2043.570942 3637.838116 8591.436360 9274.442215 11866.463404 11809.410237 13166.207016 15385.608110 17335.472828 17818.513556 17233.751625 18258.611467 18831.264461 19082.805157 21321.069440 21653.570690 21497.624230 23222.467880 4311.528112 2592.083769 1606.542428 4891.521295 5115.840102 7187.580101 10269.091359 11415.848936 14099.279102 14829.405899 17005.041381 17325.913613 17832.654114 18160.439897 19230.106355 20268.641360 21281.229653 22287.588688 20304.756766 20148.210705 1539.933925 1364.427081 1489.939549 1921.359034 4561.543872 4411.058138 8707.796805 11927.076926 12926.577838 11984.842580 15813.195361 15588.985241 18282.311661 19939.993420 19137.426615 20007.210232 22432.861379 24094.812773 23765.374079 21465.939667 21767.439082 2348.449383 788.710963 5663.412932 3207.287719 7755.619534 9850.611502 8965.616063 11484.960515 14335.664993 15702.266912 16491.479957 19114.047751 19620.457740 18470.112556 19338.616661 19921.448050 21043.964292 19772.489834 23584.286077 10863.761151 nan 1453.872028 2797.088340 4031.903091 6675.861410 8786.779911 10020.002651 11054.961561 13699.571979 15395.817640 16883.310528 18248.199341 17816.105888 18994.601306 18729.488841 19306.812218 21066.430427 22091.901754 22549.154806 1193.910950 570.580346 2771.635306 2373.968206 5390.136476 7870.650913 7818.318436 7989.049228 11894.758990 13869.611155 13451.604524 16585.625321 16566.452248 19064.084178 17711.304273 19109.419268 22287.347615 21294.418469 21605.621826 21846.033444 2947.124588 874.053295 1198.356344 3929.756300 5705.342244 6677.598147 7982.067128 8968.110771 10286.246084 13018.700120 14637.374588 14575.870299 17306.556664 17071.125648 19058.648073 20581.165868 20960.560152 22347.772319 21858.641601 22289.658669 3161.846398 3206.138406 2373.754670 2618.567872 6485.557071 6666.959306 9120.997963 10511.285281 10479.852403 11016.852358 14549.965476 15690.973296 16941.384576 15283.011203 19261.956810 18408.230776 19735.252793 20483.639638 20209.083576 22948.934370 1524.701621 3254.690426 3910.678037 2150.766618 6117.709140 6999.459253 9861.466147 10876.119308 11551.677352 12827.845794 13616.750896 15903.506478 19086.456446 16919.788354 16756.667613 19590.394236 19041.190728 21084.154507 20183.106829 24266.347723 6432.833216 1218.461546 3847.483166 4630.020260 5580.515828 7884.823724 7861.720685 10682.377958 11405.474551 12060.104199 15895.678938 14668.449368 16968.525179 18084.977041 19908.467565 19750.303821 18890.063905 20467.680912 23181.290317 2795.307060 2885.319761 4247.127307 3388.162003 5709.210263 7021.172876 9178.366918 9126.166728 12732.611911 13863.313214 13629.479621 17857.113428 17046.735266 17787.525693 18718.916318 19946.062604 18185.472555 20079.784459 22674.944442 3350.378764 2308.021971 5016.804624 4336.007239 5520.674534 8148.448941 9382.389786 9682.867594 12879.072181 14386.540484 14989.369345 15938.544275 18324.146361 18024.412234 20110.869557 17645.067557 19516.445944 20050.904614 22419.642480 4274.057874 4780.624566 3465.798580 5829.847180 7636.031511 9503.785033 8673.022519 10864.592193 11477.307103 13810.529571 15519.205569 16676.457641 17184.577526 19634.365450 22201.187491 19407.808586 20699.249421 19072.056139 22876.419882 1218.809880 3632.911986 5225.503164 5172.355852 6353.292026 7294.030727 10241.219003 10113.813997 13004.363183 11913.012374 16870.457130 17838.467255 17826.913977 18727.420242 18243.558184 21026.680375 19717.098159 21224.073409 5069.696801 3563.919814 4195.915501 6328.438112 6309.795492 8311.136053 11674.844132 11445.686212 13356.585609 14147.894249 17634.660754 16715.191191 19277.865671 18807.928178 19859.923505 22502.298327 20360.764646 21061.101203 3997.685956 4787.680494 5988.802969 6902.532308 7860.593015 8985.560249 10423.671549 11941.772688 13661.938302 16030.214219 15207.298060 18880.330029 19805.006572 20438.093857 20147.392178 20009.539372 20283.654419 3023.730242 4098.302969 3865.282909 7437.006117 7160.637156 8456.389942 11692.267558 12949.510735 15891.614968 16584.738992 18739.983098 18598.929490 19584.513621 20485.978421 19818.559171 19924.808090 19815.392982 6283.918247 5702.810867 6465.334115 5461.490448 8546.684668 11751.294264 10012.175591 13863.473031 15677.109749 16669.610664 17531.531001 20532.017325 19786.426598 21136.212988 21029.221669 20222.952135 21418.021847 22126.767258 -5088.682295 5773.823011 7738.815225 6373.327510 10654.887864 9307.164832 11988.805835 13497.909552 14642.489689 19799.779738 17602.172998 19992.277133 20861.544459 20891.068219 20303.417481 20685.166654 4165.196103 6856.068785 5687.553264 7666.645174 9080.281935 10078.461674 10392.758293 14433.594843 15919.314816 17040.400300 19980.696738 19437.020324 21111.595347 20816.871320 21677.724056 20595.419698 5451.578439 4936.750292 7363.911216 7490.167038 10186.738360 11246.400536 12018.176282 15000.580684 14833.540785 18354.912999 17850.249722 19105.103745 21825.356755 21993.006066 23156.599462 21122.090727 4066.236806 7188.785211 7217.027807 9144.787450 9648.974012 10249.473154 12974.250158 13343.337410 17525.053187 15928.363644 18213.012402 20411.980026 21815.327146 22777.727433 23107.197247 6013.338100 8021.114812 7800.203324 8070.588946 8815.399287 12696.990792 11953.131590 14285.902748 15008.787566 19319.150607 19395.606841 22061.597563 19736.051094 20551.652194 20536.392177 5700.066318 7848.263707 8429.456368 9088.260744 10037.691379 11549.049487 13544.430155 15598.637365 17190.097475 18861.800482 19912.200734 20354.934658 23271.801318 20829.363041 21922.738225 8400.823652 8602.298607 8427.495617 9885.498692 11324.350143 12026.183937 13994.665700 16973.183087 18401.501874 16897.516531 20724.445826 19887.175015 21541.308346 20962.849451 1983.134492 8694.636116 8505.018334 8988.928145 12425.350421 13208.847352 15167.284833 15318.838611 16606.558778 18838.733217 19658.985783 22159.958996 22394.385759 21712.576105 6850.045709 7476.553917 9311.314076 10292.418875 11761.579419 12492.029158 14216.676826 15718.583974 18725.312082 16920.024626 20914.928472 20060.612176 21005.826884 22761.243134 12820.665031 8493.427619 8651.405125 10276.473537 10955.795368 13768.070115 14954.931276 17060.824614 19619.358873 19217.725679 20241.841089 21121.638529 23115.925776 5415.382614 6951.389867 9624.775945 10013.825641 11547.945380 13566.255651 15845.399016 16397.574906 18244.202940 19615.971108 20210.266076 21721.365202 24195.213546 6209.996890 7444.018358 9104.381611 10079.227328 11379.588834 13664.732028 16805.810364 17257.810844 18407.577910 19175.946300 20720.844599 23565.108310 24533.908611 13555.340526 7367.428790 8025.850756 11225.177722 11415.262964 15873.813552 15871.466336 17853.704162 19310.939106 21498.055892 21195.523485 20805.977843 4891.485314 8640.752427 9447.638415 9947.238912 12944.264321 13693.284141 17360.031807 18156.380474 19728.071046 20877.843139 19418.395102 21604.636021 12248.790063 8564.019959 9733.733276 11165.523933 13112.284514 15888.815412 17634.958466 17674.061627 19020.560646 21469.851094 19833.936286 21220.848855 21523.175913 3474.642325 9713.917883 10537.185621 11862.718341 12134.078430 15684.167163 13955.031182 18324.511591 18198.853761 18734.811185 21435.540626 12323.840113 9408.807974 10632.457002 12852.621646 13870.988294 15112.000305 15361.640987 16169.461146 19462.936370 17735.421457 21814.599532 3396.904312 10457.744362 11126.006448 11919.220370 12996.996604 14521.120965 16202.500774 18398.534282 20698.041762 18320.517882 22003.478882 11035.817800 10990.642676 11281.074935 12194.896144 13322.753911 13654.801545 14553.611446 17854.861060 16533.674818 20209.469610 11827.946688 11593.390787 11504.140041 12174.302544 13598.759729 12828.705513 15745.875479 18455.139557 19317.340370 19708.920272 6313.605413 12438.580341 11709.316164 12493.170716 12433.412539 15299.094254 15801.377035 18006.678320 17603.680034 20208.724915 23552.205179 12020.329093 12114.400975 12072.342480 13325.947753 13656.054461 14271.955900 15136.161238 19699.923616 11402.253069 14194.498656 11468.766550 12009.760596 12974.850957 13315.393704 14609.846639 14171.074117 18980.854360 21834.867544 12214.341737 11152.457105 11814.305822 12496.351604 13345.482493 14287.867421 17282.773066 18612.663799 20865.343294 18470.668194 11023.949675 11333.498091 13773.127269 12056.454274 14637.289782 16899.272974 15465.856258 11972.613786 10396.886835 10976.611531 11995.664990 14066.682267 14218.102248 16057.975911 24719.188630 11255.801140 9758.311739 10889.935603 11084.989279 13018.297513 15435.139650 15627.616035 11445.478089 8943.638058 9255.189376 9903.716218 11900.212602 14693.589243 15285.477973 19058.785620 7777.445687 8198.062786 9813.065300 11686.331733 12745.740471 15128.289784 11208.882384 9004.640384 9254.780346 9921.928973 11390.804650 12881.084884 14584.845142 15296.022250 7102.396745 7280.052465 7806.594454 11523.007746 9904.258895 13288.425286 8071.176214 6345.956332 7670.508964 10696.310889 12409.409143 12728.703463 5925.977396 6608.234477 8354.251106 10865.781070 12830.835642 13122.951367 6105.004396 6521.834122 7759.439651 8300.040605 12775.222846 5341.071074 6452.214829 7760.652810 6800.300916 11683.242879 5886.436461 6129.833668 6315.290692 6684.893961 8039.331546 5517.471830 5720.337023 6122.157105 6339.915444 4589.267390 5125.641006 5994.959493 6004.134679 4290.737591 5199.612731 4978.835549 5276.372950 4220.894740 4070.375545 4363.032286 4824.873563 3585.082274 3790.153961 3874.463508 3189.982078 3274.857632 3539.367113 2997.087645 2962.277640 2721.627008 2680.446111 2258.817234 2384.877945 2163.144174 1996.875267 1908.867855 -1561.011037 -1178.036890 -271.482717 -644.331621 1991.029154 -1502.731759 162.235822 -5414.000621 2832.720641 6079.575542 -2230.184001 1803.645871 391.106921 -254.344666 7569.312720 -2170.941442 -2724.376129 -1544.675793 935.187367 -7467.480638 4817.974985 3846.563396 3347.605091 -2000.253825 7809.925261 6646.132807 1189.132904 5915.533005 4381.096623 8954.422808 -7456.085626 2768.959834 1075.750375 4605.791999 7557.649939 7552.604441 5696.680423 9968.155732 507.590449 10025.853091 1775.850992 2607.044943 7965.787221 11742.679602 10011.638273 2642.081780 4091.477860 3200.937905 4338.187888 5455.825832 8831.524481 4247.618640 6074.094387 8024.395870 10059.672841 9592.861813 7623.746235 2887.143145 12738.872455 13212.016679 2319.839115 3286.170368 4323.411242 3798.984942 5949.185931 4765.180159 7320.773180 8824.392882 7133.131532 6574.933066 10268.416232 8449.269397 11107.716541 8280.700312 12254.403150 2561.890124 3258.815412 3645.595205 5002.393689 4826.845122 5826.795297 4303.839315 5956.764133 9635.328402 7678.870276 9899.792307 7373.518125 9096.353560 11158.106034 11412.573204 2769.228449 2948.249204 4031.296484 4183.504487 3862.658671 5976.026336 6409.985120 8965.203537 7050.418345 6709.062884 6360.117805 5000.262446 8701.396935 9014.541835 10822.174299 2948.055660 3820.998872 3114.786792 3120.500197 4067.819378 5095.357016 4074.941975 5567.643047 5344.038617 7764.230973 4264.368795 7805.664995 7558.779784 10245.594603 13840.288405 5830.643429 3851.775106 5355.843366 3314.290352 5103.961460 4374.375613 5350.014614 3320.469627 7517.245572 6579.361416 4749.156872 8140.228527 8121.337806 9707.797276 6519.899230 6078.703523 3528.472720 3961.153525 3896.225018 4019.226363 5867.850098 4937.527669 5026.914847 4307.359601 6884.276813 7762.547014 8003.551744 7242.981849 9773.458247 7478.856373 3629.260477 4002.040958 3745.383562 3756.339283 4096.232240 3456.272661 4190.397538 5825.968225 5875.447403 8033.955715 4698.243926 7673.544600 4966.568700 7488.687821 9616.371989 3325.747902 3496.124686 4183.164217 3661.054714 2707.633999 4119.989100 3710.680861 6023.659853 3531.439263 2120.566989 3234.794178 6195.471860 6099.394961 6686.342453 5537.701008 2303.606105 1289.417197 3174.925105 2488.358416 2218.022897 4324.395306 1286.777381 3518.847879 1860.354508 1880.771408 2997.634233 5819.275125 1963.066360 1829.537892 2788.347263 2978.717224 843.311248 1788.127882 860.027863 1798.287113 2114.041968 2465.347125 1326.026777 4677.376904 18280.931971 1755.316241 1757.247206 991.434057 3249.863939 3192.462237
</DataArray>
<DataArray type="Float64" Name="Velocity" NumberOfComponents="3" format="ascii">