<VTKFile type="PolyData">
<PolyData>
<Piece NumberOfPoints="2186" NumberOfVerts="2186" NumberOfLines="0" NumberOfStrips="0" NumberOfPolys="0">
<PointData>
<DataArray type="Float64" Name="Pressure" format="ascii">
 29677.252507 27224.479497 26237.550428 26849.839121 28543.630085 30862.177302 33149.644080 34073.868427 33748.337268 33207.436400 32273.182181 31736.217970 30802.933618 31216.534728 31166.828421 31530.445058 32582.785310 33761.578924 34930.552899 36118.378537 36798.445944 37212.640348 35455.051087 33938.243149 32729.389158 31523.402902 35131.160080 32865.621164 31064.130928 30470.906464 30867.412100 31982.316104 33419.913010 34881.363459 36043.433401 36299.357625 36259.910083 36377.408457 35613.676156 34391.953169 33870.643954 33864.345179 33863.114219 34080.819151 34796.318287 35718.120025 36198.892996 36711.906007 37172.518824 36675.499617 34855.179727 33224.838506 32118.096363 31693.163387 37310.716319 36500.935402 34904.509102 33458.411244 32881.017240 33187.077773 34093.311031 35159.141195 36087.425630 36784.095738 37163.162260 37382.632424 37372.312014 36703.096142 35782.001495 35288.845978 35223.225754 35253.978778 35404.881317 35863.654080 36424.260121 36771.083346 36911.774972 36827.124100 36207.756158 35029.259981 33632.806803 32501.210770 32019.027765 31523.402902 31537.011196 32822.130512 35105.098682 36253.988973 36582.451307 36031.344489 35534.701155 35344.014614 34694.192360 32966.339441 33011.159199 35654.176086 38530.263481 38831.829124 35712.505086 32534.821955 31184.206919 30322.534120 29447.917334 28493.989387 26977.665754 25544.439966 24336.655314 22972.884377 21040.713440 19239.352086 19050.091506 19152.828495 18478.793126 17547.650839 16872.167278 16403.021506 16047.173359 15418.455897 14628.087948 13990.136672 13083.038161 12186.151891 11683.568018 11316.482006 10570.171997 9849.387748 9489.361769 9121.472465 8480.367768 7887.453200 7554.244960 7367.744867 7171.266237 6785.725331 6152.386656 5304.632625 4542.451152 4114.827195 3887.591046 3727.448879 3452.954402 3103.815893 2769.684915 2447.586252 2118.957440 1889.434901 1722.283868 1504.179454 1284.204830 1076.534453 887.569061 721.313593 578.473885 457.876420 357.542406 275.224922 208.614379 155.422673 113.431031 80.516299 54.643758 33.735545 16.182779 8.526378 31693.163387 31369.429830 31661.208059 32818.596435 34049.840495 34424.880580 34042.891177 33869.934628 33502.094745 32610.573320 31890.544348 31859.210735 32419.298541 33505.756477 33743.189774 32011.833771 29959.049928 28848.352018 28087.001580 27080.975260 25815.338305 24512.256736 23358.766583 22373.101035 21062.671568 19512.022823 18602.277147 18440.909868 18247.667678 17686.446521 16993.358485 16495.331262 16233.551674 15938.592702 15341.322437 14570.156290 13704.256886 12779.295826 12056.207467 11582.654533 11172.978285 10599.989374 9951.396486 9590.911523 9300.712800 8766.740241 8187.807782 7887.741659 7658.103373 7304.543216 6814.808211 6176.213385 5405.407433 4734.775208 4286.490781 3974.393070 3741.182734 3442.349227 3052.307314 2686.398686 2361.094363 2079.936633 1859.909179 1656.227293 1440.762970 1224.309466 1020.202678 836.426981 676.104375 539.250776 424.348043 329.280817 251.738959 189.373920 139.876025 101.026515 70.736414 47.081004 28.294408 13.985113 8.737365 32019.027765 31751.373131 31687.300866 32107.850778 32662.751866 32910.945234 32921.316213 32973.803258 32846.259106 32361.724349 31879.791192 31615.389646 31400.923816 31169.068062 30652.810314 29608.413787 28353.798760 27298.051495 26439.342480 25506.750017 24433.081625 23411.701306 22552.178526 21789.692464 20911.015385 19876.223601 18984.757084 18391.916523 17928.052490 17396.146036 16787.813411 16243.179135 15865.731256 15568.557863 15183.063874 14603.516097 13836.327173 13019.384912 12301.538872 11740.578558 11284.439653 10831.110973 10325.404347 9869.100907 9496.466357 9081.372536 8621.731005 8217.114073 7875.425836 7522.010567 7103.561716 6562.976641 5900.382471 5224.779075 4639.270227 4177.135374 3817.366738 3494.986908 3157.086402 2819.003210 2509.710758 2234.196142 1992.530198 1772.290518 1555.499904 1338.206137 1128.274800 934.710004 762.773868 614.029830 487.779010 382.275802 295.373928 224.797358 168.260493 123.539253 88.527007 61.291443 40.161737 23.813838 12.477490 8.972719 8.526378 5.898821 3.447837 2.051105 1.213037 0.705656 0.402538 0.224925 0.123052 0.065896 0.034536 0.017712 0.008888 0.004363 0.002095 0.000983 0.000451 0.000202 0.000089 0.000038 0.000016 0.000006 0.000003 0.000001 0.000000 0.000000 8.737365 7.289092 5.428023 3.495532 2.168433 1.318730 0.786415 0.459860 0.263636 0.148159 0.081610 0.044055 0.023304 0.012078 0.006132 0.003050 0.001485 0.000708 0.000331 0.000151 0.000068 0.000030 0.000013 0.000005 0.000002 0.000001 0.000000 0.000000 0.000000 8.972719 8.037049 6.801264 5.105377 3.421218 2.167719 1.327425 0.793265 0.464021 0.265938 0.149365 0.082214 0.044345 0.023436 0.012134 0.006155 0.003057 0.001487 0.000708 0.000330 0.000151 0.000067 0.000029 0.000013 0.000005 0.000002 0.000001 0.000000 0.000000 0.000000 0.000000 0.000000 0.000000 0.000000 0.000000 0.000000 0.000000 0.000000 0.000000 -0.000000 -0.000000 0.000000 0.000000 0.000000 0.000000 0.000000 0.000000 0.000000 0.000000 -0.000000 -0.000000 -0.000000 0.000000 -0.000000 0.000000 -0.000000 -0.000000 0.000000 -0.000000 0.000000 -0.000000 -0.000000 0.000000 -0.000000 -0.000000 -0.000000 -0.000000 -0.000000 -0.000000 -0.000000 -0.000000 -0.000000 -0.000000 -0.000000 -0.000000 -0.000000 -0.000000 -0.000000 -0.000000 -0.000000 -0.000000 -0.000000 -0.000000 -0.000000 -0.000000 -0.000000 -0.000000 -0.000000 -0.000000 0.000000 0.000000 -0.000000 -0.000000 -0.000000 -0.000000 0.000000 -0.000000 -0.000000 -0.000000 -0.000000 -0.000000 -0.000000 -0.000000 -0.000000 -0.000001 -0.000002 -0.000006 -0.000013 -0.000031 -0.000070 -0.000158 -0.000344 -0.000737 -0.001545 -0.003171 -0.006374 -0.012550 -0.024217 -0.045808 -0.084969 -0.154622 -0.276183 -0.484512 -0.835436 -1.417184 -2.368079 -3.905545 -6.380100 -10.396610 -17.197039 -29.349200 -38.737906 0.000000 0.000000 0.000000 0.000000 0.000000 0.000000 0.000000 0.000000 -0.000000 -0.000000 0.000000 -0.000000 0.000000 0.000000 -0.000000 0.000000 -0.000000 0.000000 0.000000 -0.000000 -0.000000 -0.000000 -0.000000 -0.000000 -0.000000 -0.000000 -0.000000 -0.000000 0.000000 -0.000000 -0.000000 -0.000000 -0.000000 0.000000 -0.000000 -0.000000 0.000000 -0.000000 -0.000000 -0.000000 0.000000 0.000000 -0.000000 -0.000000 -0.000000 -0.000000 -0.000000 -0.000000 -0.000000 -0.000000 -0.000000 -0.000000 -0.000000 -0.000000 0.000000 -0.000000 -0.000000 -0.000000 -0.000000 0.000000 -0.000000 -0.000000 -0.000000 -0.000000 -0.000000 -0.000000 -0.000000 -0.000000 -0.000000 -0.000000 -0.000000 -0.000000 -0.000000 -0.000000 -0.000001 -0.000002 -0.000005 -0.000013 -0.000030 -0.000069 -0.000153 -0.000336 -0.000720 -0.001511 -0.003105 -0.006248 -0.012317 -0.023794 -0.045054 -0.083652 -0.152361 -0.272353 -0.478069 -0.824529 -1.398137 -2.332340 -3.829744 -6.191876 -9.852800 -15.360399 -22.955745 -28.994346 -30.626963 0.000000 0.000000 0.000000 0.000000 0.000000 0.000000 0.000000 0.000000 0.000000 0.000000 0.000000 0.000000 0.000000 0.000000 0.000000 -0.000000 0.000000 0.000000 0.000000 0.000000 -0.000000 -0.000000 -0.000000 0.000000 0.000000 0.000000 0.000000 -0.000000 0.000000 0.000000 0.000000 0.000000 -0.000000 0.000000 0.000000 0.000000 -0.000000 0.000000 0.000000 0.000000 0.000000 0.000000 -0.000000 0.000000 0.000000 -0.000000 -0.000000 -0.000000 0.000000 0.000000 -0.000000 -0.000000 -0.000000 -0.000000 -0.000000 -0.000000 -0.000000 -0.000000 0.000000 0.000000 -0.000000 -0.000000 0.000000 -0.000000 -0.000000 -0.000000 -0.000000 -0.000000 -0.000000 -0.000000 -0.000000 -0.000000 -0.000000 -0.000000 -0.000000 -0.000001 -0.000002 -0.000006 -0.000013 -0.000031 -0.000070 -0.000158 -0.000344 -0.000737 -0.001545 -0.003171 -0.006373 -0.012550 -0.024216 -0.045804 -0.084956 -0.154578 -0.276033 -0.483992 -0.833632 -1.410944 -2.346536 -3.831337 -6.125015 -9.523197 -14.184237 -19.628173 -24.414860 -26.333076 -26.378327 -38.737906 -66.256401 -124.385419 -193.078434 -276.792553 -379.917349 -504.755771 -651.161312 -814.943203 -985.264276 -1140.959600 -1251.121936 -1313.257849 -1466.362761 -1861.873931 -2276.987940 -2660.405748 -3608.348695 -6593.798052 -6035.633491 -3221.893062 225.200954 503.625785 -1159.401389 -728.914205 1301.410479 2773.094963 2416.968994 2062.680214 2516.709132 2427.059577 2772.029060 3976.988434 4769.739749 5516.783728 6458.681354 7733.460490 9265.330147 9994.762929 11532.916127 13558.604889 15954.239303 17532.319803 19138.067209 20959.063962 22652.973403 23901.180491 23927.036919 24188.212247 26707.401512 29677.252507 -30.626963 -43.282371 -74.889309 -126.928206 -193.109253 -276.099950 -378.958219 -503.750319 -650.348005 -814.739853 -986.592186 -1145.868451 -1261.322521 -1312.243075 -1364.575546 -1580.878181 -1883.389062 -2157.393035 -2682.924169 -3506.650429 -3168.843879 -1095.407135 602.695750 838.211897 1015.813818 1820.371968 3280.927373 4736.262157 5347.948246 5465.477117 5608.339678 5721.125264 5896.882267 6277.963619 6958.550315 8223.860781 9952.112768 11692.555420 13195.899742 14667.786964 16554.982404 18513.882650 20468.274653 21927.632606 22891.899763 24368.436099 26431.539024 27758.971491 28339.337771 28956.131228 30337.489835 32623.355944 35131.160080 -26.378327 -31.119874 -47.477974 -80.850376 -129.677032 -194.592759 -277.240664 -380.055834 -504.828066 -651.301099 -815.422703 -987.045371 -1146.913204 -1264.744877 -1312.633808 -1312.260433 -1359.797773 -1519.317190 -1772.105409 -2148.798504 -2427.746888 -1996.731176 -749.100418 349.960807 1199.903021 2113.599716 3282.120152 4747.530566 6146.541241 7113.657310 7587.742832 7787.794266 7910.389951 8107.225351 8517.949129 9290.667096 10558.903708 12262.321419 14077.648556 15811.545891 17542.057501 19381.428004 21251.310128 22953.928997 24312.000463 25423.184877 26781.994298 28392.127455 29683.598139 30615.261800 31553.914281 32825.235574 34662.370029 36450.068932 37310.716319 527.672662 1654.010250 3311.509638 3520.152295 4706.822364 4825.970261 5471.810837 5775.202148 6974.467381 7743.843279 9798.430856 13639.730924 15857.887601 17943.088311 18081.931097 19562.108912 20986.690577 20486.131532 20999.246566 23158.427609 2993.267806 3784.178136 4106.656413 6036.199970 4983.446644 5458.581674 5572.014850 8464.033681 8453.063076 9594.971229 12532.270061 15304.872011 16868.071326 17992.997174 18768.818699 19665.884630 19971.572076 21925.623217 21276.260232 22382.933597 5527.837889 4543.601767 4556.583904 6102.505735 7003.329235 8339.692817 6966.925261 10488.033320 12672.620364 10908.768230 14487.443313 15475.186394 16246.985846 18690.931618 20614.962776 21021.971113 20410.718618 21190.606723 22988.928306 23752.214758 6251.908536 5991.965040 5563.460097 8067.429034 6915.392665 9192.273677 9411.525509 10905.512494 11013.963147 13940.646311 13698.932298 16918.321950 17173.272321 18903.640902 21437.634888 22740.506858 24073.735027 23867.645353 26484.913494 25756.475419 7829.194019 7436.334631 7632.170723 7219.448487 9304.331389 9466.579540 11253.486269 10972.422354 12559.197211 12782.636757 16689.721398 15174.853996 19521.018191 21104.461177 21668.652966 23863.327282 23551.995531 26211.680466 25984.231571 28136.487226 8577.104443 9008.449327 9187.412149 9700.275931 9437.258211 11894.356429 10362.122223 13302.945269 13581.436528 15377.527691 15935.882140 19044.305760 18463.383951 21267.597823 24014.930503 24167.819503 25992.930883 27753.228158 30198.414298 30767.060932 10319.180004 10409.849875 10878.956292 10762.329783 11549.143253 11402.365354 12837.946381 12695.528422 14812.781824 15859.195922 16935.113123 17940.175337 20597.122269 21394.486703 21833.539841 23054.124228 25193.761618 27321.219249 31373.785134 30861.847259 11769.134412 11754.879491 11652.683297 12501.129547 12707.055324 13430.545496 12960.396991 14978.963350 15781.937804 16276.346069 18861.043456 17803.051812 19348.793584 21786.747565 23402.605639 24546.963023 25641.682355 27941.858787 26795.536676 30849.009594 12086.912932 12698.007166 13164.221688 12940.157479 13832.150645 14518.695712 15020.431271 16427.534226 16687.509402 17609.691334 17413.915211 20194.082401 20670.671368 21656.005080 23360.098173 25258.910095 25569.470172 26116.976289 29438.862733 28483.080060 13729.623150 12377.278187 12898.940715 13800.829888 14163.489820 14976.468159 17326.801723 16832.869438 18054.024883 18042.536766 19299.072853 19290.547448 22964.930675 22478.019905 24461.617703 24978.885033 25823.338409 26322.602735 26513.514056 28123.244120 11747.862899 13501.495134 14278.802071 14130.953927 14646.684183 15603.116288 16337.263153 19081.395676 18705.218016 19926.107809 19720.833647 21458.220864 21675.219735 24976.456922 25352.915165 26308.022445 26233.242722 26212.396887 27088.401015 27694.496033 9909.226842 11830.826851 13063.662836 14255.799527 15432.559163 16267.403640 17381.677406 17485.310867 20377.824725 19872.891591 21560.787922 21348.535714 23347.565067 22967.815794 26839.937161 27175.946605 27445.785660 28206.601316 27783.040700 27507.552178 10548.150997 11310.643797 12928.167770 15081.024513 15892.446685 16296.869416 18324.556307 18977.688974 18899.256172 20650.176408 21642.968866 23056.490578 23254.949239 24953.234731 25074.826606 28340.258434 28056.895919 28302.027418 28975.346093 29091.822211 12729.786091 13602.025558 13659.675796 13982.802449 15665.097323 17318.788597 17340.856932 19621.143560 20391.181238 21430.045060 21772.083953 23019.259583 24058.632830 25137.480775 28075.563815 26871.777171 29609.801723 28234.468437 29880.216587 29277.838099 1386.179263 14153.343702 13582.489322 15779.994290 15899.321838 17527.229114 19396.483168 18966.932450 21826.805976 21902.840021 23421.760125 23120.622397 24527.994023 25946.394572 27091.882119 30050.371015 28665.477034 29877.224274 30074.206754 30041.771041 8951.071058 14434.817285 15227.852534 14872.154377 16862.028990 17889.961884 19068.665854 21260.288895 21371.763604 23395.929886 24110.926953 24639.851876 25458.117278 26137.608830 28690.636329 30797.637557 30496.550061 31370.809828 32062.515802 30992.679602 14671.513838 18520.115835 14360.874327 16651.945519 16250.554751 17695.107289 19868.455780 20519.447957 23434.961901 23014.843382 25543.108045 26115.818466 26625.922975 28570.394659 28711.172307 30979.217873 31871.874357 32347.233449 34184.974640 32645.973622 -1277.825540 18358.992012 14572.332922 15870.026714 15347.902245 18029.680430 19357.051323 21907.343054 22659.617336 25448.094294 24988.359225 27201.082920 29226.029861 28362.002492 31637.296972 30999.101418 32268.961510 34141.508696 34381.299502 33735.427155 7521.568476 16421.983980 15538.513438 15735.837817 15845.139852 17772.853977 19760.237281 20818.267953 24128.775040 24821.183720 27211.073149 27392.452525 29456.174711 31576.320027 31273.395684 34025.037865 33244.573771 32559.610380 34699.566540 36417.822877 3794.499490 13419.181903 14886.435028 15106.957020 15112.629460 16959.476607 19710.784746 21949.281490 22823.980065 25605.933690 27477.041012 29154.490899 29561.713096 31752.334359 33952.335384 34389.547850 35633.135958 35766.485038 36129.526192 36565.030035 -1225.094484 11190.934795 13968.293925 13224.864662 14763.716676 16686.639479 19475.193073 21491.346395 23646.954612 26086.909177 27662.909096 29505.043302 30872.558112 31586.043438 33346.699871 36198.920480 35781.864384 36823.447361 36888.683661 36325.350954 -118.982605 11241.229989 14024.817776 12507.926266 13705.573366 16610.332205 18962.381402 21177.266283 24415.666439 26412.551044 29198.177602 29771.528271 32198.230012 32674.256263 34091.891119 34404.232880 36820.091000 36053.987515 36007.757790 35895.182559 6806.337564 9867.157803 12853.860431 11419.928588 13632.812670 16404.037473 18367.279741 21265.521776 23434.976342 27378.042014 28721.584139 31311.662274 31379.305702 34071.872481 34546.592045 35522.733742 35654.672543 36402.610023 35637.572702 34781.385335 7882.736291 9221.375872 10075.532910 10244.792185 13541.750237 15687.232294 18472.886288 20927.112362 24158.366523 27611.224576 29775.472221 30761.833446 33237.409839 33312.665696 35581.773592 36672.257703 36964.378119 34841.296707 35076.366792 33657.120251 6129.581304 8613.383430 8832.675131 10913.583237 13530.938976 16366.111770 18870.362681 21567.270199 25327.042203 25911.925297 29590.452401 32435.509969 32786.851000 34436.449130 35018.571774 36438.736287 37878.147181 33117.310255 36299.297766 34674.799943 5985.340037 7630.807303 8189.049634 10584.101312 13971.829822 16864.444111 19154.603154 22522.688059 23472.617796 27772.961566 28792.826068 31335.459364 34155.400412 34804.003586 35155.607127 36771.277031 38274.390602 37418.470247 36941.698878 32565.048870 6271.829734 6529.399773 7416.384004 10460.367097 13718.971599 16343.375745 19725.694452 21607.208212 25175.854918 26423.509016 30208.358926 31151.944622 33431.874744 35334.916178 36356.354674 36667.459019 36295.337515 37719.516642 35936.197757 5328.975080 6422.681877 8045.676958 10893.584695 13705.041124 17272.788114 19462.226377 22690.861616 24749.173151 27420.624804 28505.839159 33237.348144 32412.395968 34884.287388 37715.193621 38022.455617 37878.735443 37812.813035 37460.443017 5452.656407 6628.651260 8657.411312 11642.236640 14432.420658 17392.826588 20647.471381 22057.630181 24862.356423 27506.290031 29808.716337 31243.389948 34678.946819 36370.565021 36605.006853 38177.278996 37686.304170 37720.301254 37141.107033 5636.390871 6608.833028 9142.991708 11684.163609 14938.455785 17334.918148 19855.341191 23295.315373 24812.128153 27118.921218 30299.821918 32780.944393 34589.358034 37623.504162 39127.792315 38268.006882 39210.538838 38152.682511 37001.356825 5107.245997 6495.559481 8287.837721 12017.659783 14602.741702 17992.120126 20643.569005 22567.055120 25755.541438 28208.018790 30099.456298 33452.500483 34201.191099 36586.068502 37299.167675 39018.976963 38628.575591 37326.763251 4935.531410 6257.791167 8352.113488 11476.325373 14472.929163 17980.620244 20543.915803 24113.314308 25646.627736 28604.187626 31751.978551 32154.134771 36358.175766 36458.941881 37750.744143 37119.894314 37146.156310 36644.143981 5268.764540 6357.320927 8602.370082 11490.646453 15308.993337 17925.836918 21221.124175 23513.764599 25712.882464 28770.791445 30013.304881 34467.594882 35639.189227 36262.215541 36606.833589 37791.813249 37627.614369 5059.919113 6698.787303 8650.713820 12124.433437 14895.623098 18121.244694 20819.703480 23219.315223 26638.853547 28548.168781 32400.580297 32233.502522 35587.798001 36645.930135 37716.803286 36510.647228 35871.798721 5331.960898 6766.001871 8754.282686 11570.123119 15272.330229 17888.018920 20530.413424 23818.275270 26533.696749 28827.434755 31463.444453 34160.096036 35051.161805 37270.784832 38364.984229 40262.213703 34662.291339 32369.239559 5217.521408 6824.279301 9667.402958 12230.366003 15060.509145 17628.224960 21071.401351 23920.525716 25905.614054 29234.916493 30633.914303 33694.171776 35169.883679 36000.831989 37208.363207 38876.470598 5077.600439 6709.525279 8574.650866 12176.745517 15578.043332 18607.842543 21997.136986 23569.625906 27032.287427 27963.079681 31277.128218 32999.453591 33988.564234 36587.543960 37609.846881 41024.655351 4993.701043 6810.718900 9116.101401 11600.510718 15213.123799 18313.732368 20540.974030 24462.615489 26079.386670 28944.760766 30510.362460 32317.271643 34370.931686 35812.837914 33627.185460 39740.522906 4720.153127 6016.770227 8698.984800 11463.064034 14737.409930 18511.995022 21501.706745 22952.215196 26274.668777 27995.976556 29997.822127 32412.150693 32985.823068 33855.981898 35490.217684 4513.141121 5960.990883 8081.911179 11355.996519 14774.724936 18060.168538 19976.843891 23382.438280 25830.937971 27822.298987 30186.614003 30711.909168 31174.424519 31881.411737 32660.068212 4311.519085 6278.472983 8138.432943 11543.141038 14349.503471 16851.256981 20650.734854 22586.589603 24576.485915 27943.661842 28106.922542 29629.211097 30457.983085 29997.497321 31444.872697 4297.997739 6119.755767 8129.852928 10577.628484 13499.350204 16546.548788 19585.479641 21833.033064 25185.945832 25901.126730 27842.849559 29174.139867 29428.393303 30321.268572 4137.744472 5785.961558 7215.970199 10142.122842 13013.107752 16598.232249 18240.660634 22613.893366 23042.810540 25885.716186 27781.995543 28706.812984 28809.615035 29539.834947 3737.864230 5392.076733 7101.899847 9923.469197 12741.620418 15347.641389 19311.236455 20498.984513 23510.757643 25143.474678 27586.433786 27903.027276 28547.177344 28398.511624 3793.602270 5033.932772 6827.802515 9534.179162 12098.002420 14456.486203 17809.367194 20121.183142 22311.055794 24751.898249 25284.168306 27047.045547 27378.549234 3319.398827 4696.564112 6845.893699 9392.651433 11382.082155 14477.415005 16457.861880 18904.277959 21530.586816 24601.027652 25661.646261 26977.959230 25598.458822 3466.705793 4469.779982 6068.477245 8757.754759 11635.358358 13642.208740 15819.861581 18406.450065 20244.351715 24261.758377 24920.739002 23421.846070 24306.362881 3259.799850 4502.332453 6002.412173 8282.012942 10477.789325 13417.052174 15383.168686 17678.194962 19911.734662 20775.972867 22292.177197 23471.045788 3047.689411 4312.672449 6188.665026 7800.576960 10389.092614 12693.941410 15094.264376 17148.851341 18409.989869 22350.077795 21063.800341 21502.208147 3094.137081 4095.390269 5686.035443 8023.174287 10057.033661 11940.723245 14668.219500 15177.468076 18574.959342 20334.244270 19916.360126 19652.829659 18768.281926 3109.499396 4258.804113 6011.627455 7692.661860 9567.687230 11636.899890 13992.390838 15887.690003 17001.211388 18242.164328 19616.036068 2832.020650 4252.778886 5198.096020 7408.698642 9381.146002 11106.433290 13592.886959 15292.441405 17626.461048 16780.114111 18603.658490 2857.515178 3956.898659 5402.927732 7043.932279 9023.448736 11567.092451 12832.874728 15643.971062 16534.223650 15911.158911 17485.587932 2551.728025 3334.904518 4769.568163 7097.483251 9029.799491 10968.811857 12955.443277 14501.490184 15465.582435 16189.626068 2672.249658 3446.052495 5012.435853 6458.630316 8966.182591 11447.229321 12952.074509 14527.985704 14634.633585 15675.915758 2631.680745 3696.315794 4939.971735 7009.219088 8979.999459 10949.982713 13138.846660 13644.751716 14766.700472 15736.309016 2672.585059 3776.212805 5095.076486 7422.799308 8953.797435 10975.332902 11981.377141 13849.812942 14908.940187 2728.466123 3740.490706 4852.738559 6990.646745 9020.411142 11165.108969 12708.568383 13523.971511 14229.027912 2371.821109 3533.619058 5046.724806 7051.732996 8592.299513 10839.150305 12477.771285 12857.329764 13498.090563 2900.608266 3743.462044 4925.727068 6974.178908 8876.103302 10337.443848 11313.375045 12425.456835 2725.817384 3707.139566 5092.171251 6976.770379 8925.383956 10527.650237 11173.301927 11764.528834 2762.400731 3828.997538 5146.226219 6475.489437 8653.123590 9999.406148 10881.950117 11369.870818 2662.740701 3484.071496 4624.410946 6727.691892 8003.484997 9639.028016 10433.042098 2430.767259 3236.485937 4835.682763 6442.154273 7918.269808 9027.195542 9708.596804 2439.077229 3367.114308 4502.313131 6101.659555 7929.539885 8311.699005 9296.139932 9645.729348 2273.244407 3366.680885 4154.847283 5934.178055 6689.627775 8488.141009 2489.967634 3201.647735 4084.713903 5514.633405 7270.629614 7959.446780 2263.630151 2876.877396 4165.523910 6115.371183 6728.171163 7630.183119 2338.709032 2988.098927 4264.212863 5016.747981 7000.892958 2375.414185 3235.068175 4941.651535 5866.333794 6654.854572 2362.363747 3729.834169 4728.439297 6064.541236 6836.084685 2652.746778 3869.983137 4262.294487 6138.872885 2700.540639 3465.509054 4823.522069 5476.438614 2937.562873 3804.924084 4166.262617 4703.745344 2736.868291 3636.617718 3613.293282 4265.199929 2586.489263 2961.067185 3657.938654 2246.189511 3177.794218 3660.818676 2377.421636 3093.434333 2352.561236 2873.088018 2410.311053 2692.583872 2288.609336 2128.293361 1879.553243 -2494.994955 -3289.944340 -6484.987513 -5111.368616 647.133627 -706.698068 -3066.189096 -208.735101 -1975.970053 573.878630 215.704766 655.546493 973.443109 152.643382 3347.149665 -3044.235744 -149.185403 -492.951322 -1122.742949 -764.403584 1082.723998 723.907715 1039.820368 169.941401 2326.359606 1226.157320 -349.803814 13.608855 2828.844487 3886.566098 -383.765557 84.901801 -280.104786 -246.632500 365.715540 823.348549 625.987751 1719.189932 719.771811 2763.429452 3048.909719 960.378480 3924.911477 5952.204182 4300.597013 380.039828 -78.174486 208.170093 468.349630 538.862722 977.055098 1146.251934 1983.056174 2891.467442 3672.435716 4810.327150 6231.978394 4671.039482 4666.668520 6625.514351 681.730534 393.667681 519.550726 568.809827 918.875118 1401.384836 1997.890006 3030.366808 4238.471026 4791.257830 6184.605971 6683.195538 6482.229197 7278.411217 7800.891353 411.385582 413.085276 524.880938 756.187132 1053.047795 1953.917308 2987.013297 4181.404259 5446.914152 6920.618909 8038.166159 7959.260553 8562.955802 8504.461625 8725.206087 279.934584 301.074580 501.461367 698.168798 1411.213497 2465.536844 3718.862132 5517.000864 6974.850883 7894.699290 9405.788948 9929.839558 10155.015609 10415.342163 10124.731982 141.178852 247.746250 331.219858 819.843932 1817.993597 2762.948488 4869.022676 6362.138632 7921.028543 9953.146465 10631.853712 11240.063292 11604.551567 11679.857963 11673.521501 -189.846733 9.629171 270.561522 1132.903989 1966.859744 3813.767434 5429.163636 7488.975078 9140.519211 9946.333695 10873.820938 11427.198152 11850.078204 12245.205486 11778.134995 -185.667023 -129.946065 467.757594 1370.120500 2661.018104 4707.171526 6367.849495 7535.679211 8701.645746 9505.615007 10781.669402 11431.226939 12148.467729 12543.735219 12732.972621 -398.978422 -20.463427 907.822486 2112.191696 3942.860152 5055.902058 6350.859132 7698.862765 8625.173916 9988.532844 9918.217983 9764.584035 9824.339922 9176.562408 10609.636743 -230.610768 532.434464 1740.759731 2800.858174 4462.846602 5621.055068 6453.722486 7026.759810 6441.626590 5925.245929 4818.933768 5800.069102 6252.774893 7661.590718 8503.302081 -10.663417 1470.138697 2807.106609 3755.347263 4566.118786 6197.107071 6849.506954 8042.219006 8417.877093 10467.568617 11910.004166 7572.072274 10105.503502 12227.083077 10167.141705 971.243666 2067.756941 3600.609566 5211.564357 7911.931502 11180.503268 12086.254927 16229.019512 15468.782167 -1803.645951 9630.000271 13853.834303 12888.405021 17832.878384 13424.704297
</DataArray>
<DataArray type="Float64" Name="Velocity" NumberOfComponents="3" format="ascii">