<VTKFile type="PolyData">
<PolyData>
<Piece NumberOfPoints="2186" NumberOfVerts="2186" NumberOfLines="0" NumberOfStrips="0" NumberOfPolys="0">
<PointData>
<DataArray type="Float64" Name="Pressure" format="ascii">
 25329.185591 25523.570656 25894.154916 25294.449950 24550.889926 24489.998547 24257.602105 24357.421222 24732.287083 25448.030652 25640.514003 25252.427412 25014.675694 25753.911004 26119.990330 25913.466431 25976.451011 26233.986072 26472.247297 26218.922715 25650.516347 25373.532119 25387.815731 25219.418908 25192.075491 25232.936083 25934.174026 25749.372858 25619.743967 25791.519933 25978.934937 25728.904418 25183.159751 24708.194170 24665.177480 24844.838822 25170.573038 25652.715201 26146.764495 26252.098875 26042.990849 26124.184527 26290.908846 26214.259306 25910.832083 26264.042168 26761.863772 26689.611224 26162.636824 25729.927602 25633.097900 25589.999917 25346.453717 25234.171568 25959.368878 26005.396540 25998.658610 25904.163003 25903.902698 26100.837608 26222.422884 26091.787601 25970.878350 25944.886305 25976.634588 25992.207884 26013.344102 26096.353645 26169.115992 26185.473221 26379.493787 26826.680568 27125.564980 27069.602219 26856.863906 26667.315138 26431.527179 26253.050650 26191.612166 26107.606507 25814.141926 25394.630540 25260.388988 25232.936083 25259.928076 25108.910176 24805.342150 24731.986395 24592.811945 24086.544189 23606.620138 23138.940515 22661.909495 22448.382230 22169.752936 21810.750794 21567.392402 21059.012674 20718.114127 20501.098025 20205.745506 19833.771298 19802.729160 19838.698057 19505.907492 19340.072951 18788.336731 18277.753134 17765.708453 17379.072606 17204.140282 17061.766389 16830.876745 16556.561316 16098.137626 15640.366652 15247.464456 14823.723919 14397.523627 14229.854541 14303.531708 14287.849983 13972.231778 13410.767826 12837.887584 12367.548809 12142.404431 11837.087212 11824.048424 12091.755761 12241.582522 11986.841276 11316.820842 10989.547094 10672.504165 10040.676683 9756.653997 9623.477095 9567.771406 9445.242948 9272.165108 9120.726302 9007.677265 8296.809811 7425.449966 7174.740412 7250.270922 7339.424698 6943.115877 6340.436091 5568.807380 4801.967177 4301.946683 3912.543620 3569.503759 3333.166656 3122.278810 2949.747439 2782.458003 2670.971358 2584.831187 2434.198224 2203.186982 2055.518292 25234.171568 25322.448152 25456.392776 25322.598738 25056.774781 24669.628302 24172.409080 23821.999521 23550.851468 23091.530919 22512.186133 22177.315712 21898.224180 21487.750932 21037.184454 20780.471661 20774.260940 20740.233430 20479.301695 20209.132728 19894.603508 19428.956970 19080.556683 18818.391944 18506.245427 17960.521543 17452.761401 17249.204878 17095.513950 16879.212160 16552.771027 16124.213622 15669.273450 15346.937754 15048.444464 14604.774581 14265.734333 14222.682928 14127.019618 13717.704728 13254.899989 12822.245437 12429.799371 12213.465138 12006.929014 11937.415050 12047.739476 12038.883005 11630.387335 11102.953040 10774.794321 10473.855295 10039.682003 9694.284961 9447.841390 9316.342271 9184.289200 9059.074312 8919.537775 8562.335489 7972.934121 7439.850494 7208.277368 7090.281665 6857.647518 6438.407481 5833.453990 5177.507460 4602.152498 4147.562082 3787.091394 3497.361884 3257.965470 3064.587709 2902.879344 2758.994557 2634.113199 2509.184105 2351.924161 2172.935668 2093.111405 25260.388988 25178.647780 25023.856562 24843.299159 24648.450060 24306.250354 23813.996589 23362.730812 23037.767137 22712.819926 22343.490545 22078.020218 21880.183134 21619.798294 21338.229185 21082.237731 20870.104066 20670.832031 20453.458356 20221.488959 19966.288590 19677.893488 19332.747442 19009.835111 18662.006463 18202.477931 17694.170202 17287.812550 17009.078048 16766.999527 16484.619589 16171.786020 15852.572419 15565.141242 15338.025241 15092.690717 14784.085499 14510.367937 14277.498706 13989.946822 13624.212508 13200.369975 12762.439184 12418.771383 12218.738376 12110.162570 12029.595326 11887.603871 11608.405341 11244.913605 10896.917048 10567.740975 10207.330251 9846.055050 9555.325885 9339.439683 9161.448247 8994.342258 8799.502389 8514.427946 8118.453365 7681.188547 7314.085718 7043.411882 6787.797192 6458.231016 6013.270167 5480.154544 4932.206338 4432.472120 4010.558633 3668.782037 3396.053898 3177.676227 2998.940992 2846.176207 2708.320719 2575.770403 2437.718843 2290.396467 2161.548352 2115.991172 2055.518292 1920.438492 1704.901660 1542.028922 1439.667344 1361.702116 1280.000251 1214.863401 1165.256651 1136.076515 1127.585194 1125.525529 1124.626744 1121.016661 1115.609691 1108.810377 1100.829847 1091.822568 1081.918928 1071.232604 1059.858987 1047.860832 1035.214589 1021.561328 1006.211023 997.114683 2093.111405 2031.021656 1913.761582 1745.269766 1589.240274 1469.578108 1382.030999 1309.535420 1243.890327 1190.155320 1152.800122 1134.806534 1128.648685 1126.557369 1123.396408 1118.786995 1112.873915 1105.800411 1097.700028 1088.694738 1078.895354 1068.402139 1057.305604 1045.687904 1033.630172 1021.262890 1009.160732 1000.851256 997.401255 2115.991172 2085.564982 2020.955883 1903.577706 1751.290371 1603.225251 1481.744976 1389.642052 1315.251303 1250.361219 1197.341788 1160.524575 1140.210370 1131.607968 1127.457172 1123.559453 1118.730266 1112.731747 1105.606049 1097.460132 1088.409704 1078.565264 1068.030371 1056.906573 1045.311097 1033.431135 1021.679251 1010.978175 1002.759589 998.659764 997.507229 997.114683 987.113753 969.409935 952.907026 936.969434 921.140893 905.310867 889.450085 873.552913 857.619825 841.652400 825.652031 809.619753 793.556384 777.462750 761.339908 745.189353 729.013202 712.814345 696.596578 680.364706 664.124633 647.883420 631.649337 615.431888 599.241835 583.091200 566.993264 550.962555 535.014837 519.167083 503.437461 487.845307 472.411103 457.156457 442.104085 427.277791 412.702454 398.404019 384.409492 370.746930 357.445450 344.535224 332.047493 320.014570 308.469855 297.447846 286.984154 277.115517 267.879816 259.316086 251.464532 244.366539 238.064679 232.602718 228.025618 224.379537 221.711820 220.070993 219.506749 220.069927 221.812490 224.787501 229.049095 234.652440 241.653710 250.110047 260.079528 271.621130 284.794705 299.660954 316.281413 334.718443 355.035243 377.295866 401.565258 427.909321 456.394994 487.090359 520.064783 555.389088 593.135750 633.379140 676.195799 721.664748 769.867837 820.890124 874.820288 931.751074 991.779773 1055.008782 1121.546400 1191.508372 1265.021944 1342.238159 1423.371356 1508.830110 1599.643870 1699.353473 1813.790705 1881.729843 997.401255 993.255530 982.953436 968.060264 952.540179 936.861324 921.109840 905.302892 889.449017 873.553865 857.621335 841.654042 825.653689 809.621395 793.557998 777.464320 761.341413 745.190765 729.014484 712.815455 696.597470 680.365330 664.124935 647.883346 631.648828 615.430887 599.240285 583.089042 566.990441 550.959011 535.010515 519.161929 503.431421 487.838327 472.403132 457.147445 442.093981 427.266545 412.690017 398.390342 384.394526 370.730627 357.427761 344.516100 332.026885 319.992427 308.446127 297.422483 286.957103 277.086727 267.849233 259.283658 251.430205 244.330259 238.026392 232.562370 227.983156 224.334908 221.664971 220.021874 219.455308 220.016115 221.756260 224.728807 228.987893 234.588688 241.587368 250.041077 260.007894 271.546798 284.717642 299.581129 316.198795 334.633003 354.946951 377.204689 401.471165 427.812274 456.294953 486.987278 519.958610 555.279761 593.023198 633.263281 676.076538 721.541974 769.741423 820.759924 874.686132 931.612751 991.636988 1054.861003 1121.392363 1191.344476 1264.836970 1341.995979 1422.953865 1507.844333 1596.764328 1689.352770 1782.459917 1848.264613 1874.131838 997.507229 996.076747 990.776306 980.403402 967.059777 952.198410 936.751162 921.073876 905.290281 889.443762 873.550971 857.619229 841.652217 825.651975 809.619736 793.556379 777.462748 761.339907 745.189353 729.013202 712.814345 696.596578 680.364706 664.124633 647.883420 631.649337 615.431888 599.241835 583.091200 566.993264 550.962555 535.014837 519.167083 503.437461 487.845307 472.411103 457.156457 442.104085 427.277791 412.702454 398.404019 384.409492 370.746930 357.445450 344.535224 332.047493 320.014570 308.469855 297.447846 286.984154 277.115517 267.879816 259.316086 251.464532 244.366539 238.064679 232.602718 228.025618 224.379537 221.711820 220.070993 219.506749 220.069927 221.812490 224.787501 229.049095 234.652440 241.653710 250.110047 260.079528 271.621130 284.794705 299.660954 316.281413 334.718443 355.035243 377.295866 401.565258 427.909321 456.394994 487.090359 520.064783 555.389088 593.135750 633.379140 676.195799 721.664747 769.867834 820.890112 874.820251 931.750951 991.779372 1055.007474 1121.542132 1191.494444 1264.976483 1342.089764 1422.886957 1507.248131 1594.491421 1682.255575 1763.934868 1828.722440 1861.471093 1869.953476 1881.729843 1965.307369 2117.688168 2265.300412 2413.094482 2565.112133 2722.535137 2885.860128 3055.364022 3231.245871 3413.667592 3602.766371 3798.662208 4001.471169 4211.333187 4428.465877 4653.260709 4886.443941 5129.331344 5384.214965 5654.948416 5947.944036 6274.218483 6668.299959 7073.216023 7456.034101 8169.583256 8614.440094 9009.809123 9869.524468 10389.255265 11000.088722 12147.991155 13127.135683 13935.511668 14563.354483 15083.001037 16086.147562 17062.837340 18107.337820 19147.403540 20200.890516 21167.429275 22043.707784 22682.564995 23176.368451 23809.457537 24453.621158 25332.710948 25370.837394 25329.185591 1874.131838 1910.286475 1998.517848 2128.501885 2268.082543 2413.762303 2565.141520 2722.366308 2885.626068 3055.105975 3230.977188 3413.393091 3602.488101 3798.380908 4001.186136 4211.041195 4428.158971 4652.921958 4886.038452 5128.783866 5383.344313 5653.252550 5943.806930 6261.990293 6625.447644 7029.028574 7435.000546 8042.032302 8525.346758 8945.168748 9681.479366 10297.389055 10926.148625 11980.413109 12931.886757 13746.880776 14456.004001 15054.126331 15995.554476 17021.775817 18060.743126 19167.987891 20265.009350 21300.256436 22243.934755 23004.880610 23574.756679 24121.128685 24490.672623 24725.820942 25035.642541 25596.381992 25934.174026 1869.953476 1883.023897 1929.197124 2019.140833 2136.768476 2271.054577 2414.870315 2565.658341 2722.703243 2885.911867 3055.379947 3231.250772 3413.669095 3602.766812 3798.662268 4001.470925 4211.332203 4428.462434 4653.248828 4886.403105 5129.191449 5383.737284 5653.323317 5942.423167 6255.728716 6596.404694 6977.945116 7410.225695 7914.138137 8419.770353 8940.403000 9561.147828 10216.243171 10962.054727 11893.893680 12806.436303 13601.904030 14324.063079 15077.262949 16010.477432 17018.542413 18042.651715 19061.936273 20021.971665 20940.912965 21858.849597 22722.588373 23434.029319 23960.456951 24426.861666 24884.482428 25409.100091 25844.457011 25970.896616 25959.368878 10430.669100 10476.581696 12608.982590 13092.857603 14420.577391 14753.591979 14757.506971 19022.100327 16343.095866 13769.438975 20041.624809 20413.517889 21376.586985 22244.454178 22444.487377 21339.696748 23133.127611 23163.522083 25543.462257 26088.976575 12946.342184 17533.201082 12696.794896 17708.166782 15439.427056 14835.847734 14963.729720 18330.900403 18645.317646 19012.826805 19296.236349 21732.308633 21980.219907 21915.849075 21936.134391 21162.147822 24986.950185 23286.809678 25804.860663 25926.884488 15815.801946 17315.849705 13417.671720 19233.935043 15385.666484 17122.164513 17148.326265 22493.862215 20208.950189 20366.349728 21527.124774 21307.732315 21006.521207 21935.699137 21933.524922 23057.485078 23574.483984 22965.489631 25214.286112 24887.825502 18944.645562 20078.836802 15193.490405 17555.085274 18041.874243 21866.192781 15668.495303 20166.173839 20744.657009 21759.710874 21810.526281 24561.161283 21859.070529 22510.469407 21801.937157 25210.693051 23804.746019 23079.878481 24416.140041 23575.010707 19988.111588 21782.303636 16375.495827 17384.531909 21464.025665 19355.890766 16338.448405 21134.643097 19960.139350 16377.166371 22609.374226 21172.231979 21543.780292 22901.034345 21969.516121 23365.742600 21924.170711 24745.535619 25010.155408 23989.802647 13330.173840 18985.553060 15319.567673 15173.884453 17073.588636 17889.417838 19862.595604 22551.803498 19213.133290 19958.349121 21286.777468 26092.771452 18480.478289 19025.495402 22275.286215 23443.969738 22586.491173 25397.949764 25165.022771 24886.538051 20072.330400 17018.905697 18868.771148 19038.816446 15136.255505 21528.994544 21716.976988 21365.101848 20960.263327 16818.512143 21735.120906 22022.446571 22634.028086 25001.416980 21344.431400 21988.805526 23444.432772 25354.121489 25170.031697 24942.275803 18336.683436 14841.657602 15875.854751 18163.683904 17682.033254 15873.934428 16990.235959 20101.882567 21113.115955 17994.977436 22688.741753 20414.655204 21757.187653 22442.019427 22112.844547 23798.437604 21854.992280 26011.505015 23345.985512 25394.430192 15208.225176 14400.779029 16118.678894 13555.553332 18320.466906 15334.734819 18700.672616 16131.111060 16097.981750 17050.186533 16525.578538 19350.859673 20046.506075 21335.845810 21614.861780 19947.769068 22663.645191 20515.033335 25551.404489 25210.988817 14298.694052 15596.182685 20275.053482 15225.608375 15579.004628 17340.082343 14698.308528 14600.254706 16657.754933 22301.876617 20353.387159 19587.341392 20887.351241 20867.757577 20317.998167 21553.320066 23122.709077 25922.011568 21276.275205 24473.768943 17964.049328 18285.832261 15215.639602 17288.248385 18323.898463 20449.945878 16328.295492 16523.421623 19067.525984 19281.827719 16818.489044 23521.389050 19897.235768 25035.227294 21874.970349 23781.518047 21092.210065 23153.598524 24330.052698 25229.422781 13723.799293 13706.209535 15013.632793 17008.726592 14861.903909 16561.896533 15587.516422 13883.240529 15605.397412 23498.772813 20668.041853 16037.419023 20495.798070 19355.474158 19143.734478 23162.914325 23088.737484 21416.480634 22615.565328 24095.863747 15108.203041 14302.981318 15161.290876 16144.874548 16112.585276 14697.984888 15388.866341 17277.063578 16657.334069 16398.553450 14746.838201 21727.354137 15664.838884 21678.898052 21767.142431 20654.840362 23853.739767 24638.936158 26204.619894 24529.448617 12852.100893 13990.154727 16433.850581 14227.335524 15301.098705 17556.420428 15966.297499 17166.474004 14261.232229 19487.295425 18277.657513 19124.850184 24631.869257 21547.595163 21604.752496 22680.315708 25713.981784 25273.967141 22956.899701 26295.525063 16666.622444 13484.118295 13980.325062 14251.040335 15425.889371 17701.301413 14910.189286 18214.591019 19162.696376 16805.566789 20291.780697 17799.284165 21477.146227 23522.716216 23067.260405 17118.056640 20341.435925 26382.808163 23767.926434 25938.441297 12462.245510 12957.674641 13220.875816 13869.468190 16316.631484 19221.491812 15023.729554 14367.145129 17303.714528 14748.840211 17561.426524 16513.600332 23586.226035 22648.592559 24842.461904 23138.726111 20343.558400 26164.205420 22615.740030 26060.975371 18340.646435 13943.676927 13274.343521 13744.857551 15383.649313 15192.785875 15184.507103 17356.894916 17144.368988 16020.442395 15181.106864 21706.361994 19429.477566 23026.846107 18219.113322 23111.067450 19351.001423 22556.522150 26225.877466 26237.452001 12440.946844 12599.607357 13157.095350 13453.429494 13929.907006 14400.857371 15604.402496 14856.769474 16286.272510 15969.744368 21415.065732 16490.080521 16274.403944 16161.714209 22628.983169 19333.061006 22289.076568 25965.739953 24512.188211 26124.362877 10455.812281 13388.372286 13085.388913 13872.431419 13739.996598 13981.858424 14825.923298 15055.082189 18859.299570 20981.169282 18968.156720 19633.344767 24867.473340 19088.511372 22867.166002 24097.102385 24927.316701 23110.536250 22770.503631 24493.033306 12722.005323 11972.419752 13280.549006 13723.156276 14504.784107 13927.945176 13215.146943 19026.319769 16075.758005 15895.191102 19308.728285 17111.839198 24202.085735 22259.890792 24651.040393 23623.669839 24647.876798 24996.339309 25567.528776 25120.910045 9586.189826 12542.626153 13628.536099 13242.527630 13606.293043 14414.540870 14810.152942 15583.314238 16729.197528 18219.023408 17196.733130 16394.531522 18663.612209 23592.824239 18543.596212 20420.834550 22388.277271 22989.416937 23513.128822 24907.395192 9608.266324 12568.575398 12762.620087 13467.998347 15402.642664 14256.863116 15257.951185 16336.136840 15051.591621 14990.104576 21690.049399 24247.061603 21930.392453 22153.119555 22958.941089 18351.803540 22995.034705 21329.766817 24978.118550 25049.563548 15439.226038 13166.048500 15845.546805 13634.673010 14203.027622 13474.670243 15569.352231 14699.396504 18003.942467 17717.123290 17163.953533 21842.000340 18083.272103 23018.152729 15554.965462 23822.959035 25931.678819 25871.954551 25211.763732 25137.803944 12246.315659 13435.411297 13009.055851 13637.661623 14583.254045 13697.102287 17421.352850 15656.226091 14578.506400 17673.339383 21087.930155 20175.347480 21242.380838 22450.411162 24661.422965 24110.260730 24732.895223 26078.008882 24682.227295 25242.322215 16024.931841 14140.481449 13032.120454 13694.711615 15416.719924 13892.603627 14318.580107 17141.665228 14544.974189 15492.940198 15543.090546 20633.940318 16415.929684 16369.513302 22737.577386 23916.295108 24527.813313 23906.598560 24427.250446 24532.361642 13665.051731 12973.595099 14177.889731 12640.650862 14571.736782 13835.012010 13829.086158 16010.228352 15654.306901 18459.179131 17442.764243 18490.101484 22214.416786 20785.009571 16757.176168 22572.621215 23751.787748 23100.224822 24685.858806 25242.100506 9285.709860 12819.121540 14841.041348 14003.673890 15646.302304 15689.041045 14144.400786 14505.451782 15075.344906 16840.920425 16186.437535 17680.395537 18334.199441 20017.726610 23533.526971 23311.950173 23433.555813 25804.276314 24389.024210 12190.221464 13037.549480 13384.311775 13412.792291 14249.356117 14637.605225 13949.190908 16441.918164 18862.750244 15895.099380 17152.631580 19522.849673 23372.875330 17399.481237 22666.353660 24774.953959 24313.910098 22042.323279 24007.687220 12716.315866 12424.328664 14009.332462 12780.316052 15067.965885 14713.958125 13360.612867 15047.917418 17215.155568 17767.957864 18708.662786 17439.107167 21508.610157 16516.605226 22397.225528 24741.070563 22795.524918 23685.620709 23906.699895 10991.817838 12729.464830 13630.472826 13572.382746 14301.952300 13873.302256 17376.504435 16814.416142 16579.376398 19492.095367 18099.258307 17405.368170 17948.393823 18980.556266 20097.846882 19920.158981 21935.730143 22149.953730 23668.251909 12218.206767 13508.971890 13921.663796 14353.979799 13209.344912 12985.650156 14957.144588 15249.543015 14194.579921 14847.815331 17501.289345 14365.075019 19923.328535 18030.233491 18149.808417 23377.719218 22742.484888 23210.722859 11090.247908 12599.112907 13585.764491 13552.620038 14206.985947 13854.552515 15839.900279 15153.802917 18952.404867 16470.313271 17260.731408 20945.697859 19131.138153 22120.211619 22054.380958 22647.551098 22014.197258 22616.981698 9789.147109 12440.533565 12582.470802 15034.540808 13517.648383 17149.530809 13121.854275 16569.378931 15269.951887 18373.604014 20196.505986 21194.579889 18062.754997 22841.022249 16988.707003 23317.775448 23611.935049 9961.817692 11843.678186 12931.323674 13836.656839 13622.131545 14652.625498 18745.870995 14021.643019 14452.757004 18183.662179 16132.632896 19744.318452 23990.227335 21513.816742 18743.651475 21324.281308 22083.833352 12327.652423 12747.919747 13895.783779 12320.206497 19997.850993 21625.348421 16354.061029 17447.373056 16256.815787 22421.654167 16269.823487 22770.841856 21159.947069 22745.744552 21789.532910 21367.515042 22133.117348 22138.292149 13716.572169 13078.527106 19286.604982 13041.928086 13204.405284 13112.517145 14599.973009 16941.991712 19636.452812 20489.776636 21194.889454 20022.875841 21681.254051 21106.316490 21964.043916 21537.920049 13195.004483 12541.017590 15286.096652 13924.362587 13482.499524 19454.234092 15847.820469 19357.630956 20684.532963 14425.822463 21228.728480 21124.757314 22470.833360 20877.984247 16074.888260 20397.357338 12295.110001 12511.908403 12612.885169 15454.290656 22233.561631 20020.150794 19425.851079 17714.689437 19612.698572 16413.974784 17263.519353 21838.715455 20654.882542 22480.926045 22245.850907 21143.216569 13237.096056 11719.788223 12589.871552 18781.776632 14499.063303 14310.775327 20383.008846 14356.070728 14678.732400 20607.025996 18960.448126 21757.253573 22061.335809 22605.650658 20574.256821 10433.460083 12033.330661 13041.823672 12475.409901 16568.816287 13450.390755 16002.669142 18412.699962 21606.714072 20751.293643 19419.382155 23037.810017 20505.577050 17389.206584 20043.120658 13302.178627 10656.743584 12323.853973 12392.093762 14992.857817 16659.600780 12799.829353 18687.577160 21062.117041 16662.867721 22215.486701 17293.822654 21950.673557 20665.157333 19659.806995 10205.642171 12539.850575 11059.559845 12586.318741 15478.466022 14877.312730 15747.132594 17004.681688 16661.131139 16478.752795 22056.019824 22235.817690 21227.500787 19438.730159 14350.610784 11793.486652 13852.546473 20504.352176 18711.607321 15433.913404 12622.817328 17075.672933 18124.272784 21506.087395 20919.869954 16437.048015 20351.574713 19469.714961 11972.807765 9040.223935 13588.322057 13809.092095 20162.862271 12883.688624 20897.124040 17891.142163 15050.475258 15406.939108 19604.869256 19809.594948 18277.526744 19653.621295 9118.033800 18307.536742 12362.284030 16611.279120 18904.311396 18199.090487 20824.095636 16914.873957 18756.326693 19063.682718 21856.024239 19452.169917 19228.201086 18477.468267 13676.054650 12906.681240 16147.676055 11170.914350 18299.043280 12590.597816 19492.494609 20188.310376 20824.493495 21231.529447 20508.664005 18777.493237 13056.697733 15544.649866 20630.213907 15907.796465 18271.511764 21067.450366 19053.832742 12774.333852 20201.132631 19293.827211 20891.232977 17810.056161 18486.136792 16021.161477 12928.696444 13411.964190 18778.616174 12318.987579 19305.609431 14047.176762 17733.789879 18936.567522 19321.974560 16809.636924 17975.049211 12542.697002 13360.174572 13860.827730 10965.281322 10726.421019 14927.184095 17421.413344 20834.381516 15558.719048 19476.110685 18259.238161 17283.704539 12810.363321 12671.370670 12430.332818 20216.112118 11720.597123 19901.701499 20816.145181 17243.259953 19593.880502 19996.802527 19130.186428 17281.955549 17283.451751 6774.722891 16845.375851 15428.970498 18851.627518 15792.516246 14545.106891 16132.073654 22484.071257 21063.052637 18753.891970 21269.500298 16591.897959 10024.313790 12541.405656 14292.538983 20020.635053 19777.609857 18556.609423 10414.781235 21268.812460 13306.568134 16598.800046 9234.218878 12760.112555 12706.132179 13678.011321 10863.391789 19076.517129 16863.046784 20065.575838 16271.700223 18615.548528 16396.062641 11633.385999 17180.685001 13605.183570 15996.715066 16701.304211 12826.421995 16472.378012 19299.661965 18031.671745 15952.897905 14351.832281 15308.578705 12515.243198 17659.223478 18007.398774 17949.461477 17122.131667 20776.924608 21339.120252 18494.679143 1201.475486 8353.480409 8088.415183 17217.213060 14044.501238 18123.997890 14486.010535 21207.316161 19322.329970 15172.816428 4243.738890 16130.515395 14493.768008 14771.993617 19135.658254 16889.576072 19057.332570 19726.705033 14845.840752 9934.398698 10075.021529 15772.539134 12877.482336 15486.370883 20596.099517 17188.351553 14122.616699 15076.569041 10207.574787 10361.015165 16066.834477 16976.114590 20261.413494 19101.480353 20431.313069 19454.685280 14515.982111 12263.579178 15652.823533 14928.916670 16111.616585 15254.755668 16242.509904 15773.688478 21298.614749 6084.141590 10397.656154 9843.459001 14941.446567 20125.287323 16451.977252 11859.730998 16564.498580 2658.775371 15827.496765 14891.359702 16043.944253 14456.394632 14700.169632 20178.388717 13671.058942 10166.466616 8766.158298 14880.171269 16225.794435 16662.855238 18942.919829 15028.472667 10674.121250 13318.040004 12330.482147 12347.576883 18820.869323 15997.443022 12250.031509 12682.877891 11025.579842 18446.836346 5827.088810 16642.917101 17405.855522 12247.152448 12246.839469 8730.245394 15268.184904 17633.890751 13671.833098 11879.132458 17014.421405 1135.862735 14299.108216 16400.933704 19089.442259 14301.592851 19760.458403 10916.377525 16721.662343 13876.821733 13261.057926 13914.430983 12174.511382 1429.404899 15707.682608 14201.815996 19260.080707 12181.989616 9806.129079 16054.978951 15974.534469 14756.544382 18515.115505 7602.495782 11980.291628 12231.153011 9303.652666 11419.898226 11177.866268 10525.116096 12099.359102 14822.293935 11317.047172 4550.251629 11657.137083 14585.840710 1521.739569 12336.341115 10167.314709 9863.405639 13338.715226 14193.708452 15655.298844 9826.666192 13702.873089 8527.285034 9699.691726 11388.680684 13464.372284 9546.317200 11956.402672 17546.069371 7919.225890 8781.558959 14848.420524 9073.138527 14765.464716 7357.229216 7237.584930 11493.994258 14641.278349 12869.808850 13707.980289 12425.783199 13050.259164 13051.720687 14221.929764 11798.758331 15477.766383 7283.723960 14420.512382 8621.815431 8663.186851 13665.453580 11039.772033 13891.556992 12783.526754 12945.506212 13437.412801 13683.826807 14330.882157 14923.531487 13269.266949 18113.631815 15753.662296 13044.601130 13254.153925 13785.581329 14084.094256 14707.386373 10605.379654 12987.345756 15344.627897 16754.464922 13661.315976 18077.883514 18263.602481 15009.870012 13330.530496 13070.503901 11975.810785 14085.326509 13810.365374 13265.049170 12196.057015 12182.498058 11014.573503 12683.733869 13442.437401 16897.839615 12500.237263 12759.080020 17773.720536 18401.519485 15767.528065 12873.936327 12565.823230 14941.298475 15649.142489 12493.426820 13160.438066 15043.642232 13101.453768 13454.183425 14022.552711 14530.874897 16781.226060 15822.024922 13360.607930 13344.939117 13035.270032 16019.155010 14284.117272 20881.806233 13014.352195 13317.306288 13011.510734 13332.226320 12850.810913 13193.712260 14287.303876 13400.014560 16280.020741 14153.876191 13777.288058 13740.606341 15262.261837 16199.631088 13447.770707 13140.671926 12904.823903 12946.510332 12778.709453 12770.437386 12768.765918 13148.534037 15226.996206 14091.831610 14458.202073 14539.972202 14276.812548 14077.399595 14638.705291 17620.750669 12067.653493 12861.034800 13009.124103 14437.021362 13677.483804 13155.167975 13896.945760 14061.192555 16361.233259 13711.973306 13520.037190 13348.747907 14216.828592 13895.463693 18010.653399 12969.256914 12907.616257 12834.250692 13512.691160 13139.358663 14186.505380 14709.588533 13092.310816 13861.800423 16796.625836 13731.186907 13880.269225 14639.605656 14569.823611 14163.399173 13310.022862 13337.930135 13679.427545 12829.391797 13882.729064 14353.207343 13602.318319 13906.203186 12751.656313 14133.944168 14758.714713 15141.836546 15155.533076 18452.312612 17215.916631 14269.296362 12758.812583 13631.748635 12846.813199 13679.778560 13669.202564 12736.013511 13928.106656 15700.041346 16944.477950 14167.198975 13845.071036 14100.758523 13802.057462 16622.823015 12962.753068 12664.501193 13877.746974 13604.863467 13688.490615 14300.927624 14121.774392 14963.370176 13396.563196 13598.670226 13634.018658 14586.786777 15603.550800 13741.616026 14867.520522 13039.075850 13302.153242 12767.583684 13580.211355 13389.416859 13592.083032 13807.451393 14134.471592 13522.281858 13311.636285 13482.135001 14778.831771 13670.997443 13535.211491 13909.931822 12908.971910 13574.421316 13583.074622 13587.418967 13465.290591 13873.176111 14257.261162 12160.495598 12803.939959 2561.500493 11975.712548 13460.464061 12477.258834 15521.709607 13573.041336
</DataArray>
<DataArray type="Float64" Name="Velocity" NumberOfComponents="3" format="ascii">