<VTKFile type="PolyData">
<PolyData>
<Piece NumberOfPoints="2186" NumberOfVerts="2186" NumberOfLines="0" NumberOfStrips="0" NumberOfPolys="0">
<PointData>
<DataArray type="Float64" Name="Pressure" format="ascii">
 27086.059358 26674.965297 26101.184439 25949.110604 26053.516939 25604.180603 25752.656143 25689.572160 25548.137169 25712.205165 25388.513718 25635.404464 25834.299915 25699.382520 25912.400365 26124.306966 26275.724489 25857.207066 26397.019868 26858.915977 26759.443135 26462.845303 26002.406109 25543.489334 25648.762221 25910.538285 26308.341171 26705.485203 27056.526118 27214.062631 27231.098308 27004.366313 26357.516819 25740.085698 25600.500290 25861.673415 26247.823995 26307.720971 26103.441120 26072.358244 26252.039825 26377.678919 26233.880996 26353.173506 26815.629678 27279.086448 27329.765232 27088.699909 26992.384223 26964.731936 26824.284801 26447.460821 25982.511266 25789.528091 26199.672065 26186.238838 26226.006459 26307.087841 26381.946664 26430.572944 26375.825457 26254.122742 26089.927633 26057.564752 26119.595282 26124.713448 26253.436463 26441.877963 26612.005666 26804.276347 26905.177368 26935.110983 27046.940304 27286.246889 27354.379957 27140.913963 26880.587127 26650.598785 26399.703519 26126.897760 25842.133753 25585.165874 25492.350178 25910.538285 25674.932423 24942.196444 24621.762569 24259.015627 24093.696506 23729.391602 23106.334764 22535.512260 22044.266875 21637.970038 21482.882780 21300.436643 20860.260467 20533.400289 20603.743857 20385.302700 19952.235107 19707.710475 19707.546922 19501.143243 18753.746649 17961.701387 17439.835929 17001.369279 16743.372612 16448.156297 16415.565253 16293.152418 16141.613816 15733.196074 15392.135214 15093.167606 14762.964165 14546.999406 14427.882051 14295.998199 14048.438832 13810.189228 13584.073402 13378.425438 13048.128824 12712.599071 12566.236814 12175.039361 11967.153338 11885.172094 11760.837120 11606.429748 11079.006599 10580.541989 10208.318104 9860.813211 9730.996376 9671.433280 9871.257540 9986.425079 9803.233084 9297.973687 8744.064983 8422.610540 7895.751496 7518.835174 7552.722151 8250.696820 8857.632121 8838.350656 8360.526172 7696.124859 7167.748484 6984.607740 7129.789760 7097.457072 6706.673204 5936.522647 4811.571358 4224.208621 3613.171048 2937.093623 2404.374980 2165.738325 25789.528091 25782.538221 25416.807293 24872.682052 24569.933607 24367.509784 24011.161370 23602.435443 23077.473339 22387.180674 21878.556634 21568.120373 21299.899376 21250.472821 21350.444844 21151.848558 20567.322364 20124.815687 20107.989880 20178.067398 19881.334644 19211.753056 18406.463708 17702.733577 17170.632490 16735.405488 16468.711111 16484.464850 16493.349367 16299.734926 15906.382390 15514.988856 15183.445363 14888.091188 14699.532199 14605.139407 14437.556067 14107.311703 13758.343218 13493.352556 13207.336787 12873.142103 12628.281816 12483.832313 12219.251984 11923.472413 11767.725965 11648.366625 11320.712142 10879.364240 10523.968519 10174.655105 9857.302778 9694.380166 9692.982236 9795.145698 9829.845409 9620.378388 9169.310097 8700.480295 8329.151247 8009.127897 7723.532214 7698.780963 8078.055072 8551.152572 8521.331671 7980.154080 7351.594900 6891.052141 6725.731649 6816.031820 6740.125775 6134.768145 5267.502929 4523.713055 3900.591706 3308.762930 2795.221658 2390.605775 2236.253036 25492.350178 25482.439687 25395.031453 25140.568418 24890.413109 24570.944677 24017.701292 23396.816475 22798.314796 22262.769937 21918.759416 21734.255337 21554.440530 21410.384072 21303.088141 21062.845364 20677.223108 20289.508214 19986.819271 19718.909095 19407.585357 19098.642320 18790.370242 18359.628911 17791.926898 17189.504405 16714.377248 16431.852960 16256.468567 16075.350079 15860.349937 15617.602863 15354.641487 15107.973492 14896.868685 14710.549710 14488.657421 14182.917247 13869.431763 13614.322368 13348.740858 13027.074718 12710.679274 12444.181014 12199.422240 11940.878619 11711.597552 11535.815036 11315.923498 11009.794333 10684.179730 10381.590242 10107.415978 9908.827110 9826.482023 9811.466421 9782.505630 9654.623740 9378.489708 9011.805221 8644.950005 8322.316722 8066.508391 7927.564509 7958.497476 8082.912552 8089.019654 7848.675753 7440.970284 7036.036979 6744.996515 6569.894006 6395.337373 6055.751104 5507.281852 4866.351969 4245.004774 3673.472328 3158.525500 2714.259807 2385.898123 2279.660451 2165.738325 1980.942180 1705.659427 1502.503274 1371.966361 1268.136161 1162.721938 1082.723211 1022.692118 987.887583 980.799231 983.474865 989.953191 996.387001 1003.133031 1010.074144 1016.957914 1023.536032 1029.594298 1034.955781 1039.476625 1043.037910 1045.528602 1046.796067 1046.450682 1045.480937 2236.253036 2134.519905 1972.023781 1752.907649 1556.048802 1404.813691 1291.221361 1197.192200 1115.699909 1051.377768 1007.657842 988.091797 984.406245 988.054501 993.423200 999.575707 1006.155061 1012.855530 1019.415970 1025.616360 1031.274544 1036.242023 1040.399496 1043.652648 1045.929220 1047.185434 1047.473765 1047.377465 1047.505612 2279.660451 2223.202906 2122.157248 1958.736286 1759.205369 1570.871246 1416.856519 1298.335659 1202.822223 1122.270997 1058.691718 1015.858836 993.856214 987.553564 989.134754 993.791138 999.764420 1006.304934 1013.001258 1019.562863 1025.761299 1031.411842 1036.365606 1040.505151 1043.743674 1046.033077 1047.395488 1048.000174 1048.209266 1048.425899 1048.606763 1045.480937 1040.286961 1029.894720 1018.774760 1006.870918 994.026638 980.244971 965.566233 950.043248 933.733117 916.694373 898.985777 880.665673 861.791563 842.419779 822.605230 802.401196 781.859168 761.028722 739.957425 718.690762 697.272096 675.742637 654.141430 632.505356 610.869150 589.265420 567.724681 546.275396 524.944023 503.755067 482.731139 461.893029 441.259770 420.848720 400.675648 380.754824 361.099119 341.720109 322.628192 303.832709 285.342074 267.163917 249.305232 231.772538 214.572048 197.709852 181.192106 165.025237 149.216158 133.772490 118.702801 104.016852 89.725855 75.842744 62.382448 49.362181 36.801737 24.723790 13.154202 2.122338 -8.338624 -18.191375 -27.394159 -35.900467 -43.658725 -50.612001 -56.697718 -61.847387 -65.986343 -69.033524 -70.901253 -71.495062 -70.713542 -68.448229 -64.583532 -58.996702 -51.557852 -42.130027 -30.569336 -16.725140 -0.440318 18.448403 40.110028 64.718787 92.453528 123.497007 158.035052 196.255601 238.347619 284.499908 334.899972 389.733417 449.185561 513.450758 582.767550 657.541032 738.747895 829.728355 936.154185 1000.112492 1047.505612 1044.864382 1038.720022 1029.364444 1018.668149 1006.870658 994.056481 980.282093 965.603745 950.079024 933.766502 916.725174 899.013957 880.691253 861.814590 842.440315 822.623348 802.416976 781.872697 761.040089 739.966724 718.698089 697.277547 675.746310 654.143422 632.505764 610.868069 589.262945 567.720905 546.270410 524.937914 503.747920 482.723039 461.884053 441.249995 420.838218 400.664487 380.743067 361.086825 341.707332 322.614980 303.819104 285.328112 267.149627 249.290636 231.757650 214.556874 197.694388 181.176341 165.009149 149.199714 133.755647 118.685505 103.999036 89.707442 75.823641 62.362552 49.341374 36.779888 24.700752 13.129817 2.096431 -8.366242 -18.220906 -27.425822 -35.934492 -43.695356 -50.651495 -56.740346 -61.893429 -66.036091 -69.087278 -70.959321 -71.557758 -70.781185 -68.521141 -64.662034 -59.081115 -51.648490 -42.227199 -30.673339 -16.836258 -0.558817 18.322279 39.976059 64.576783 92.303336 123.338513 157.868182 196.080318 238.163882 284.307537 334.698183 389.519279 448.948946 513.157764 582.305842 656.535312 735.930961 820.118043 906.032016 967.179962 991.049774 1048.606763 1047.561578 1044.146978 1037.643485 1028.904993 1018.478756 1006.779575 993.998583 980.236348 965.563583 950.042433 933.732867 916.694296 898.985753 880.665666 861.791561 842.419779 822.605230 802.401196 781.859168 761.028722 739.957425 718.690762 697.272096 675.742637 654.141430 632.505356 610.869150 589.265420 567.724681 546.275396 524.944023 503.755067 482.731139 461.893029 441.259770 420.848720 400.675648 380.754824 361.099119 341.720109 322.628192 303.832709 285.342074 267.163917 249.305232 231.772538 214.572048 197.709852 181.192106 165.025237 149.216158 133.772490 118.702801 104.016852 89.725855 75.842744 62.382448 49.362181 36.801737 24.723790 13.154202 2.122338 -8.338624 -18.191375 -27.394159 -35.900467 -43.658725 -50.612001 -56.697718 -61.847387 -65.986343 -69.033524 -70.901253 -71.495062 -70.713542 -68.448229 -64.583532 -58.996702 -51.557852 -42.130027 -30.569336 -16.725140 -0.440318 18.448403 40.110028 64.718786 92.453524 123.496996 158.035015 196.255483 238.347232 284.498647 334.895861 389.720011 449.141850 513.308216 582.302704 656.024367 733.812345 813.373889 888.325010 948.181367 978.358499 986.046508 1000.112492 1082.547770 1233.425733 1379.938854 1526.306008 1675.937421 1829.379526 1986.436004 2146.613303 2309.249497 2473.543034 2638.552628 2803.191762 2966.228872 3126.302253 3281.959415 3431.730874 3574.244970 3708.379462 3833.420923 3949.151763 4055.672031 4152.535859 4245.871601 4347.012852 4480.749815 4829.790874 5142.143182 5595.989045 6841.244582 7612.701693 8238.345748 9460.068850 10657.555433 11486.330640 12451.049454 13277.056681 14848.588858 16389.009350 17472.813225 18466.158874 19373.324146 20422.261177 21515.339638 22451.783041 23203.694674 23859.714804 24403.242994 25136.192057 26324.287879 27086.059358 991.049774 1027.180126 1114.850620 1243.994408 1382.675264 1526.999547 1676.033383 1829.311824 1986.338404 2146.530163 2309.198309 2473.533444 2638.592130 2803.287138 2966.386104 3126.525678 3282.250520 3432.087369 3574.662162 3708.859977 3834.011147 3950.061596 4057.653249 4158.009526 4256.452329 4376.680144 4552.085511 4852.703574 5218.439036 5732.797485 6639.680674 7520.425010 8264.699326 9310.998975 10476.630199 11419.149641 12306.758342 13323.155763 14847.818070 16269.906831 17405.361644 18462.739899 19494.091992 20503.416019 21461.763196 22343.384119 23151.383279 24031.461818 24988.684788 25835.611883 26479.894439 26588.939118 26308.341171 986.046508 999.224784 1045.388404 1134.991327 1252.076182 1385.567685 1528.045042 1676.472852 1829.544477 1986.486820 2146.628959 2309.254323 2473.544528 2638.553112 2803.191986 2966.229185 3126.303138 3281.962242 3431.740029 3574.274683 3708.476014 3833.734898 3950.173066 4058.996284 4163.305068 4271.072850 4404.811209 4602.319993 4889.189905 5294.558189 5883.656630 6655.662456 7493.347965 8367.954927 9349.761124 10382.522915 11352.706436 12283.030765 13447.579036 14848.074844 16179.979677 17377.060655 18486.589118 19553.654140 20563.495095 21485.611334 22314.098721 23064.837705 23822.307034 24636.412056 25378.632584 25871.252888 26089.535763 26156.155074 26199.672065 7732.836928 7867.603729 10258.297444 10949.672700 12231.900294 12783.476100 12583.011264 18624.960305 15343.557586 10245.689013 19503.606133 20083.982130 21436.907992 22758.316761 22924.668021 22263.290193 23361.653230 23375.947293 23480.130537 24959.496839 10418.046111 16315.482822 9526.942706 17343.782995 12908.091267 12616.006569 14138.673793 17841.943580 17997.456249 18927.365196 18887.095206 22177.849227 22897.625281 22038.019354 22976.450961 21559.442335 23032.775435 21086.449280 24255.098226 24294.412978 13817.549021 16216.902608 11348.812003 19256.085134 13720.723343 16149.713002 16548.611474 22931.723529 20621.841126 20855.352846 21726.798397 22372.235312 21287.527421 22687.827676 21956.512404 22835.725720 20931.123883 22156.831960 24091.783787 21164.458987 19007.308177 20179.389310 13736.052880 17389.872958 16888.128181 22496.378527 14888.184407 20673.905074 20668.806516 22539.963430 22580.353053 23821.440305 22724.677465 22923.274705 22182.077187 21281.781653 24197.627580 22463.777497 25151.579526 24420.901372 20020.480304 22544.228875 14146.394126 16205.565949 21498.353007 19245.308514 14493.977129 21474.347850 20193.295493 15122.198873 23878.091460 21286.567638 21912.751223 23835.110576 22617.033761 21946.486944 22655.333711 24449.615934 24760.669917 25263.785612 11661.509920 18499.965796 13026.677670 13006.733262 15741.897187 17123.616588 19670.780718 24231.504018 19175.802464 19791.086809 21710.831994 25017.518476 17839.502159 19020.184327 22619.400864 24024.160095 22871.608894 25394.290868 25396.656014 25427.217742 19317.722021 15450.136323 18354.314095 18640.802381 13522.128111 21922.989417 22657.189034 21687.744254 20609.470361 15901.305571 21610.057584 21447.913678 23695.847933 24025.680334 21767.774805 21715.393740 24081.313740 24624.824968 25689.411927 25727.414977 16874.623937 13935.028782 14986.900153 16476.838263 17192.776977 14520.663113 16428.015555 19937.324934 21028.799598 17105.988499 22783.463669 19377.854732 22706.526233 22511.573732 22924.369385 23914.368276 22857.705714 25165.065216 24989.179310 25413.240945 13970.824667 13108.404129 14852.270872 12046.648990 16979.653696 13650.330470 18451.302861 14673.464257 14688.125565 15857.425462 15997.905688 18133.691122 20271.352422 21557.149178 21254.745672 19440.895163 22602.411916 19486.497076 25119.178721 25044.473690 13218.984762 15290.838277 19316.460758 13744.964247 15205.342763 17856.097190 13113.711513 13076.315569 15887.003648 21809.273259 19266.409389 18276.139414 20291.411035 20640.003858 19522.825871 20647.410887 24975.097976 24429.574049 20444.217131 25096.647381 17275.137443 17597.531810 14105.188828 15522.703461 17737.099598 19879.838456 15860.995160 16537.135212 18338.640730 18271.891661 15995.060852 22607.867977 19649.234837 24590.399768 20878.524728 23994.497972 20514.044621 23988.774502 25054.421220 24580.442533 11175.523480 11548.709504 14085.558045 16506.124438 14114.494081 15466.293022 14474.477901 12493.701904 14210.166324 22776.119413 19657.022174 15492.791375 19908.845412 17973.427354 18570.850744 24822.028666 22544.577913 20895.034842 23651.000764 25328.762610 13559.070603 12481.860298 13707.720488 15210.635173 16107.451675 13643.972024 14169.764891 16959.160926 14801.882588 15694.795673 13674.465415 20870.097341 15213.770809 20980.528511 20513.753353 19682.525253 23395.666369 23974.042535 25491.414192 25595.130474 10569.227348 11729.834241 14863.052059 11970.141767 14406.908674 15873.442842 14732.556348 16057.263170 13172.032172 18478.364199 17131.646051 18425.368584 23818.722206 20989.848017 21033.019361 21982.315669 25555.754348 25290.786665 24979.243675 25833.886661 15023.820716 11013.540028 11912.369986 12763.462114 14598.077447 17793.429364 13094.842679 18539.876240 18439.179958 16076.860370 19937.865078 17055.777807 20533.972973 22904.212332 22966.959448 16311.931082 19131.330041 25344.153268 23394.130067 25942.537536 12087.975721 10868.067191 10842.250391 11584.538797 16315.457676 18481.151781 13352.886695 12156.298471 17341.401516 12994.879382 16255.576762 15170.293593 22663.203485 21644.733878 24006.142760 22507.028594 19843.056150 24524.248945 21913.344036 25663.125585 16004.493824 11524.407654 11321.913595 11464.880648 13942.679733 13376.127133 13592.515742 16143.440454 17196.781435 14277.606213 13542.269831 20794.657332 18948.892924 23274.048343 17893.570093 22974.772784 18575.553337 21963.047054 25458.281057 25088.962212 10762.269147 10755.989584 10739.137343 11154.292496 11371.279791 11994.061728 13873.920343 12282.850775 14262.441625 13871.428545 20680.354537 15326.332393 15321.614517 14857.693284 21867.130983 19403.851214 21748.721289 25658.182564 23780.617072 25982.851435 9440.549265 11010.737127 10869.854537 11460.521557 11094.604632 11659.095553 12534.004758 12790.047839 19331.353880 20665.071060 18526.538931 19475.227254 24240.296013 18693.764292 23497.556171 24400.868452 24435.601231 24012.931606 21899.989006 23876.345364 10652.127676 10496.989989 10591.655937 11373.143978 12085.293605 11528.630305 11286.624240 17125.869290 14049.451656 14767.525237 17978.351110 17150.737648 24018.244461 21683.787279 24514.860399 23825.563650 22707.058153 26053.992384 26526.742956 25333.854038 9080.979915 11202.859132 11007.615384 11106.138573 11289.194792 12537.806310 12653.216465 13999.661126 14995.454495 18427.340440 16279.799245 16030.053916 17212.056362 24583.581473 16726.348969 19593.728862 21834.139597 23035.957940 24512.901166 25602.616579 7822.826210 11656.246508 10613.994431 11221.254377 13763.274074 12472.548810 12928.185400 15602.320435 12896.775894 13537.430489 21807.266117 23089.716529 22011.144330 22013.621982 23487.879051 17023.973193 22728.848698 20532.823638 24625.933105 25099.711924 13274.357818 10969.202865 13564.756988 11288.855773 11964.316780 11547.756375 14301.824501 12966.024246 17299.326383 16937.406783 16139.001625 22011.282062 17895.495828 22824.017001 14799.761138 24082.371937 24346.299615 25577.418671 25667.259675 24325.241642 11149.187943 11283.781317 11219.598860 11411.637457 12655.789911 11512.019620 16536.198465 14294.889991 12819.908354 17692.009737 20368.904578 19400.686063 20590.868473 23071.186187 24923.829140 24115.016021 25207.402353 24298.552741 25454.977311 25945.564592 14397.073866 12126.644983 10858.439052 11373.458200 15031.228619 11623.853157 12488.329121 16242.182992 12247.044142 14019.731294 14869.810502 20488.558442 15437.449176 16033.216871 23541.322099 22870.980415 22359.838410 24500.708657 23611.988621 24695.277765 12058.714700 10768.558728 12225.981440 10656.903542 12215.828005 11564.560808 11591.254225 13101.584440 14240.564855 17027.795120 16193.578818 17544.171374 20957.880285 20462.740287 15805.630008 22249.836317 23656.451985 23625.314803 24056.357918 25943.746523 8174.161223 11108.266060 13248.791299 11696.163077 14532.193059 14796.134746 12035.173181 12641.950294 13376.074680 16871.796619 15063.991216 17306.290464 17465.516340 19488.255984 23094.064578 22931.659041 23463.785884 24598.179784 24541.873500 10939.352207 10520.774884 10929.878259 10692.711643 12319.869049 12805.581412 12321.244399 14456.761332 18890.286710 15070.263223 15955.464077 19178.542930 23088.587865 16683.772988 23462.203533 22585.778498 23456.422566 21831.503835 23987.215593 10640.370303 11221.765600 12092.048226 10842.261610 12805.453574 13574.217910 11707.011614 12781.022971 15262.800111 17522.603365 18951.132481 16607.675928 21613.539176 14621.307527 22902.875074 22616.317221 23350.871691 23109.132766 23884.292286 10848.173238 10824.112688 11286.241553 10850.802271 12829.962525 12060.991465 14849.010642 16371.119146 16499.857381 17882.122705 16152.623749 15906.211924 18206.969178 19017.775339 20577.743925 19532.558457 21455.879164 21746.772511 23522.347887 10809.722814 10572.196763 12601.959693 11705.309616 11042.582189 10885.404451 13559.330239 13838.867804 11924.020618 13177.262383 16756.704268 12493.507610 19397.335248 18046.254729 17405.905335 23400.256201 22517.846180 22860.670740 10607.706456 10849.805051 11060.193123 11159.858773 12753.791716 12115.805717 13759.418678 12799.939020 17164.528282 15878.121342 14359.955825 20498.006129 18396.903638 21469.093919 22916.168491 22620.400259 21631.465882 22244.802028 10122.713804 10760.176428 10810.689157 13601.139343 11529.290651 15282.995744 11409.273349 14332.752995 13287.955236 16932.307247 18517.283423 20649.377570 18000.927486 22252.435867 17112.601749 22982.649003 23283.828019 10638.792778 11100.571085 11034.321401 11243.155582 11463.382097 12326.274427 18732.491870 11715.397518 11771.747693 17386.565693 15123.501904 20770.987403 23920.122774 20965.155079 18623.003029 21874.630396 21550.411400 10977.606028 11254.664433 12124.118345 10728.483869 18435.125048 21153.811695 15224.088072 14774.225566 14287.965003 21588.912338 14988.345927 22028.393644 21909.711971 22858.898253 21167.871945 20226.763045 21512.695251 21513.022555 11307.253043 11320.132335 18563.677552 11151.770716 11116.319724 11184.688811 12598.315061 15783.342362 20166.984780 19645.524575 20942.073217 18729.281963 21172.314899 21603.252444 21365.919474 20794.376760 11604.939625 10893.365225 13375.539780 11566.089369 11414.250529 17032.744160 13591.424493 18005.742578 18521.903763 12701.097544 19480.277743 21493.379236 22625.273714 20001.781148 15193.660966 20254.453363 11360.869534 10772.505807 10931.582550 13386.357971 21162.865048 18341.116701 18416.996217 16055.173043 18192.627825 13512.019304 16693.965895 20932.339653 19992.807494 22224.015629 22581.084843 19915.097605 12152.916245 10786.227984 11536.678388 16789.937423 12087.560263 12109.108796 19240.165026 11752.398636 12885.808965 18955.162721 18787.928427 21738.730012 21592.348780 21728.490399 20087.929506 10009.779418 10572.242673 11299.106619 11430.157743 14499.842044 11145.464954 14207.892003 16257.575916 20797.907154 21025.089420 19190.910615 22946.540838 19570.196477 16959.662392 19869.248074 11332.443126 10094.918930 10813.534440 10884.857488 13782.596259 14801.847895 11008.774023 16685.886434 21352.291116 14063.560043 22731.066527 14953.863164 21416.921770 20251.385822 19511.385954 10895.571997 10765.498776 10722.392259 11309.793429 14087.198141 12573.019082 13034.686088 15899.773177 13891.348487 14555.718667 20963.236243 21195.853347 20156.159126 19152.796075 11978.994862 11086.944930 11529.067703 17364.798927 17688.028275 12636.478062 11693.935873 15864.437351 17661.281906 20641.033652 19408.046315 16339.278569 20014.228112 18917.926886 10948.793576 8896.977756 11634.639501 12348.761328 18616.421195 11257.383000 19074.115010 16943.149160 12453.407420 13281.821370 20078.417098 20282.313940 15313.446578 18351.571414 7825.947984 15463.185172 11292.147969 14583.345714 17948.594482 15415.033624 21465.463336 15962.831700 19659.547862 17623.699283 20411.502822 18008.822332 17728.385219 16091.393428 11512.116784 11923.322510 16220.548724 10711.997110 18154.896503 11519.154108 18294.637333 18541.415439 21015.590550 19627.031891 20126.024561 17525.342274 11818.833776 13459.321514 19811.879769 13476.129235 15811.323299 17902.294625 17538.024159 10714.892121 19577.566252 18645.056940 19540.174687 17102.158120 17222.790717 12898.096577 11314.175671 10831.151774 15320.493563 11233.800771 16236.429346 11975.037316 17044.010603 18434.967385 16772.248682 16015.645969 15824.803063 11033.365482 10828.200188 12146.066177 10379.803891 10870.435433 12875.419051 14918.268197 20654.428631 14250.178111 18643.140149 17219.979212 16431.950172 11301.068164 10888.593572 10448.116731 19315.350975 10353.701075 17331.195577 18972.684846 14276.198542 18655.381292 19686.641204 17800.648921 16431.551618 16431.711052 6516.192550 15063.199155 14869.973300 17477.444207 14425.148587 12013.798067 14765.657485 21783.140470 17584.451775 16914.808812 18780.461427 13854.428658 8763.446582 11020.423807 13672.930243 18849.622519 17308.973877 15801.343796 10006.180474 21410.905329 13200.946753 15674.826132 9328.535275 12095.777039 10831.737553 11653.828857 8743.905299 17652.639912 15834.138300 19052.969245 15412.816694 17616.157036 15419.318561 10635.807496 15960.878749 11146.630356 13494.681923 13855.775659 11683.746293 14603.971637 16940.255096 15536.364342 15179.758700 12784.953911 12905.197036 11190.512231 16918.492538 15713.590467 15553.511687 15762.448015 20480.411228 20589.337549 16707.628723 1066.740982 9398.789640 6048.032558 14909.728044 13629.635455 16223.533436 13725.632040 20519.208917 17517.331212 14649.482656 4322.483473 13467.552145 14233.265119 13100.661350 16964.980299 15093.265960 17182.155668 16790.284921 14320.793213 9981.626629 9328.797679 13876.872847 11881.926502 13258.853086 16816.309308 15587.958401 12234.758213 14315.735211 10455.903062 9869.997770 13299.679349 15225.148747 19235.160266 16840.384714 19413.073229 18120.819979 13892.096784 10115.805498 13472.663559 12533.721910 13961.990994 13450.266622 13956.569877 15063.776434 20496.165098 6681.450438 8327.520028 9953.435964 13107.404658 17180.995277 13993.967036 12037.976795 14836.797541 4162.422100 13153.618557 13422.807401 13633.272731 12847.428515 12547.352205 17124.429992 13581.887960 7936.484228 7229.391235 12078.612603 14893.958554 15109.720521 16478.929794 11957.457282 9233.325485 12181.821680 11015.559551 11006.631215 17477.737921 13482.091430 12659.518695 11376.409752 9395.879865 14989.599295 6864.512407 14456.333502 14878.167375 12645.055508 12642.603082 7165.954289 13325.475692 14855.542517 11611.257078 11732.114480 16429.411021 990.853496 11788.113085 14334.475410 16373.856729 12603.020919 16747.588514 9408.625643 14971.701443 11498.013995 13234.962098 11792.510497 11706.076253 1366.819343 13429.717735 12811.566612 15502.492260 11614.845249 9366.691995 14180.210774 14297.944399 12850.782047 15687.642112 7123.391253 11082.210983 10765.284328 8544.288421 10973.724507 9740.781503 8695.333310 10594.618137 12500.917762 11171.462392 7374.523064 9840.617798 12244.767203 1480.658885 10242.165035 8374.119810 9865.292298 11192.082135 11928.660882 13583.456209 9681.893948 11468.317127 7227.487408 10199.263187 8858.055214 11424.695827 10095.098661 9487.153555 14705.611583 8598.548454 8509.949180 12122.562521 8827.188241 13242.307017 7917.883231 7660.771475 8972.863171 11895.916233 10809.157378 10952.596574 10166.919399 9896.678935 10384.354251 11046.865924 10573.237664 12428.863734 4444.095097 11633.476095 5168.599174 5265.370297 11151.044281 10013.020418 11719.051543 10254.040149 10810.060164 11886.493165 11407.126410 11881.554138 13112.171237 10372.488133 17701.770836 14124.931726 11609.656267 10660.626509 11725.925693 11640.679092 12520.507091 9171.815489 11325.189214 12783.226871 15977.563912 11594.049785 17898.948448 17865.856277 12480.740015 11172.869627 10845.175567 10230.994156 12179.019808 11588.750731 10938.975783 10514.184208 10177.024198 10338.160826 10648.400760 11454.480194 15037.028487 10359.099579 11286.767519 17152.388452 17502.769873 14211.081596 11225.382133 10017.172792 13158.210519 15051.392866 9997.256966 10664.066569 12963.546106 11114.397324 11318.058520 11987.448019 12706.218033 15782.318104 14676.155811 11012.973529 11354.253859 11349.252984 15352.776189 12319.799102 20964.021069 10779.979759 11711.935954 10121.625922 11933.524379 10848.467243 10186.259213 12815.962289 11696.124908 14063.234021 12336.188123 12093.770449 12086.493370 14359.016612 13967.689413 10951.777621 10392.048776 11474.424530 11457.482293 11253.950929 11113.881146 11359.122870 10548.365862 13629.877722 12308.782307 13308.101365 12787.834226 12606.433206 12288.890991 13635.746152 17013.331310 8816.493710 10909.842108 10492.940100 13054.922051 12310.674918 11787.945100 12137.032627 12381.336156 14465.826003 11869.069742 11358.809733 11389.829923 12853.459164 12630.891930 16711.960814 10976.765211 10856.350391 10875.619510 11573.007400 10730.504915 11764.431212 13316.626796 11237.813330 12443.204170 15215.807582 12199.257922 12850.841162 13369.702910 12811.322005 12767.950719 10440.092495 10911.987295 11209.361671 10897.921785 12216.060366 13755.380602 12079.621300 12886.727549 10855.063132 11536.822265 13177.964846 13766.114332 14403.164543 17183.527857 15330.405058 11100.241099 11318.091989 10675.732321 11246.874198 10936.941186 10852.364533 10999.324720 12214.051398 15000.626614 14864.583280 12690.908119 11691.282271 12334.083841 11928.175302 15780.065334 10375.238439 11295.720883 11913.576524 11291.457104 10624.773936 12421.094899 11661.922682 14294.983010 10916.685144 10926.472033 11529.897734 13306.976863 13971.537285 11499.684903 12761.474509 10709.532427 10459.882454 10631.448380 11145.412942 11045.108433 10943.110643 11015.982225 11885.275328 10979.753962 10980.121792 10827.906768 13312.282688 11330.277200 11116.530201 11948.007006 10778.405745 10294.263112 10863.599278 10867.709032 10921.898239 11528.506958 11860.399966 10939.970023 11583.421116 3346.488122 10481.760836 11331.276782 11261.988170 12134.074041 11182.011292
</DataArray>
<DataArray type="Float64" Name="Velocity" NumberOfComponents="3" format="ascii">