<VTKFile type="PolyData">
<PolyData>
<Piece NumberOfPoints="2186" NumberOfVerts="2186" NumberOfLines="0" NumberOfStrips="0" NumberOfPolys="0">
<PointData>
<DataArray type="Float64" Name="Pressure" format="ascii">
 30096.345973 30754.499209 31222.974698 31268.307846 31134.208575 31017.888362 30810.495231 30463.760118 30219.582945 30599.816647 31058.694246 31180.423211 30855.356543 31049.297430 30925.467326 30781.296446 30893.605364 30902.973303 30601.763201 29963.859854 30103.987731 30017.727878 29560.350977 29135.012266 28248.700176 27523.442229 30412.146864 30331.195096 30621.226425 31147.741023 31448.459830 31573.926091 31555.430608 31179.109765 30712.403098 30806.094000 31422.675918 31630.085815 31267.477311 31045.046607 31175.963204 31473.659097 31461.629849 31460.908146 31324.940093 31007.276655 30659.950671 30603.150881 30713.064456 30269.962684 29567.721395 28842.196385 27777.004719 27091.055256 30478.637647 30508.416748 30514.283284 30551.714553 30685.994691 30780.277815 30832.638336 30870.768819 30757.936730 30623.975023 30746.286750 30939.038823 30917.855924 30872.368436 31057.705122 31355.912605 31528.107404 31539.081789 31437.760448 31318.818237 31147.758891 30959.627664 30762.482016 30431.742477 29919.973243 29237.784530 28406.276095 27465.047363 27056.701999 27523.442229 27573.923604 28013.582645 27824.376801 27249.117822 26852.093182 26251.311161 25360.147770 24733.248949 24409.805787 24581.960069 24436.975826 24100.719770 23588.163444 22979.456974 22434.162541 22265.199504 22043.347835 21990.634179 21615.328751 20702.396047 19844.180406 19120.501750 18483.072953 18323.765207 18144.971784 17486.421264 17210.652619 16923.998169 16695.702037 16252.015602 15681.479574 14825.709502 14057.204218 13958.511692 14022.422249 13426.067316 12721.733892 12206.694922 12147.795244 11944.419737 11403.788637 11079.131718 10937.910541 10498.282835 10234.141247 9691.699124 9080.901321 8454.822257 7722.941689 7663.183441 7464.952743 6977.701717 6350.789290 5911.243907 5684.709434 5486.818261 4719.433386 3331.965743 2654.877206 2809.143576 3347.945497 3601.178960 3693.363121 3618.426759 3447.749044 3369.378880 3725.700756 3901.716598 4455.492292 4783.901445 4428.117582 3762.359291 3266.430242 3001.180048 3177.763748 3463.593539 3020.001999 2646.494863 2344.746029 2214.075599 27091.055256 27121.514273 27654.595088 27747.965912 27426.660218 26952.535933 26434.629546 25973.430378 25531.762981 25089.247449 24755.057205 24622.529508 24367.678161 23847.351130 23400.091617 22910.627282 22328.516874 21825.631049 21627.053465 21444.736371 20814.750145 19972.702455 19262.186317 18713.551734 18418.984734 18058.349409 17483.717699 17143.461545 16942.175884 16568.714966 16056.697994 15704.902659 15162.147113 14483.465423 14172.052945 14020.246128 13527.158352 12789.394452 12345.311168 12201.287538 11956.743702 11512.084143 11036.706288 10674.210077 10299.769322 9891.074336 9444.697697 8815.342886 8123.490462 7665.523083 7442.831776 7255.855027 6862.805329 6368.952437 6125.361906 5959.845321 5585.692464 4973.086781 4222.436346 3647.420114 3530.340201 3619.878093 3777.006872 3793.629128 3727.831100 3891.802095 4069.278017 3743.224898 3607.855618 4064.328562 4295.175683 4048.967705 3695.289501 3471.601658 3435.110509 3416.950293 3263.712413 2961.183810 2621.849012 2380.295434 2307.505591 27056.701999 27017.638373 27262.263805 27438.581149 27364.990252 27052.039305 26558.861823 26045.768720 25601.850546 25255.835227 24975.200526 24732.528432 24437.056217 24018.560173 23534.401223 23052.913257 22541.947773 22014.160731 21551.249234 21160.917300 20722.821922 20195.928758 19653.115855 19145.051854 18676.567985 18187.352660 17657.889074 17197.821482 16834.600542 16426.975904 15940.836980 15493.691418 15061.525298 14587.918405 14199.143236 13915.785234 13548.997171 13013.250706 12488.421363 12158.761608 11915.474647 11580.266095 11149.966504 10697.370537 10249.225487 9780.431166 9304.246065 8821.393612 8326.551065 7885.582832 7527.153171 7235.624460 6948.015471 6642.389754 6388.658772 6188.009467 5942.870763 5592.491093 5156.594921 4697.488270 4314.408685 4049.528287 3870.924157 3756.245610 3709.761074 3763.647223 3881.148360 3906.589931 3855.981707 3907.661229 4031.583814 4040.756684 3903.364767 3734.694231 3615.733395 3528.425093 3398.469325 3184.273020 2909.025333 2632.689050 2424.659399 2358.007888 2214.075599 2094.582105 1889.398991 1723.892784 1616.707438 1539.444763 1464.241900 1407.806454 1370.199955 1368.817196 1423.359100 1490.707470 1549.626101 1600.443401 1644.026106 1680.388349 1709.419531 1731.101757 1745.538289 1752.938457 1753.587573 1747.789961 1735.719598 1716.837852 1689.309717 1670.481184 2307.505591 2221.932212 2100.691398 1931.629262 1771.121805 1647.179207 1559.960931 1493.094679 1437.694909 1400.797246 1391.649158 1419.421344 1470.293447 1525.741257 1576.915462 1622.171043 1661.009291 1693.138152 1718.434331 1736.912936 1748.703267 1754.027431 1753.181944 1746.523137 1734.467768 1717.596900 1697.535371 1682.612350 1676.822707 2358.007888 2309.824237 2225.503752 2097.354899 1939.628655 1785.731207 1660.097455 1568.445281 1499.906175 1446.632118 1413.097499 1407.267720 1431.255532 1476.194508 1527.946944 1577.863065 1622.782969 1661.504501 1693.549629 1718.745994 1737.098032 1748.736624 1753.894264 1752.897226 1746.190512 1734.453323 1718.958966 1702.287409 1688.419006 1681.727380 1680.172524 1670.481184 1637.818239 1576.959696 1516.900009 1456.692360 1395.409490 1333.165661 1270.297884 1207.191458 1144.224403 1081.749939 1020.090651 959.536531 900.344511 842.738695 786.911061 733.022490 681.204073 631.558646 584.162502 539.067237 496.301698 455.873980 417.773459 381.972809 348.429993 317.090200 287.887696 260.747602 235.587551 212.319247 190.849895 171.083509 152.922101 136.266740 121.018486 107.079210 94.352299 82.743246 72.160146 62.514090 53.719475 45.694234 38.359992 31.642159 25.469969 19.776464 14.498443 9.576372 4.954266 0.579549 -3.597104 -7.621935 -11.538283 -15.386766 -19.205457 -23.030071 -26.894135 -30.829152 -34.864764 -39.028894 -43.347883 -47.846610 -52.548602 -57.476130 -62.650288 -68.091060 -73.817376 -79.847144 -86.197279 -92.883711 -99.921379 -107.324211 -115.105085 -123.275781 -131.846904 -140.827801 -150.226449 -160.049329 -170.301277 -180.985320 -192.102493 -203.651653 -215.629299 -228.029415 -240.843370 -254.059932 -267.665444 -281.644277 -295.979690 -310.655289 -325.657380 -340.978685 -356.624287 -372.621775 -389.040764 -406.037704 -423.975394 -443.882987 -467.646493 -482.316160 1676.822707 1661.818072 1625.894650 1572.997200 1515.887000 1456.433379 1395.361969 1333.168346 1270.303108 1207.185600 1144.204284 1081.715608 1020.043162 959.477244 900.274865 842.660131 786.824985 732.930253 681.106963 631.457875 584.059201 538.962452 496.196384 455.769001 417.669588 381.870728 348.330297 316.993398 287.794217 260.657798 235.501703 212.237570 190.772541 171.010579 152.853644 136.202762 120.958956 107.024063 94.301443 82.696566 72.117507 62.475345 53.684464 45.662790 38.331943 31.617333 25.448192 19.757566 14.482257 9.562737 4.943027 0.570557 -3.603988 -7.626844 -11.541342 -15.388088 -19.205152 -23.028237 -26.890864 -30.824530 -34.858868 -39.021796 -43.339649 -47.837302 -52.538276 -57.464840 -62.638084 -68.077991 -73.803486 -79.832478 -86.181883 -92.867629 -99.904656 -107.306895 -115.087225 -123.257430 -131.828119 -140.808644 -150.206987 -160.029637 -170.281438 -180.965423 -192.082637 -203.631946 -215.609857 -228.010356 -240.824816 -254.041995 -267.648216 -281.627810 -295.963959 -310.640124 -325.642312 -340.962532 -356.603930 -372.588265 -388.966571 -405.833304 -423.338925 -441.624230 -460.302806 -473.586913 -478.585107 1680.172524 1674.599853 1655.315080 1618.261885 1569.917709 1514.776816 1456.036026 1395.207368 1333.103383 1270.278697 1207.185547 1144.222581 1081.749378 1020.090478 959.536478 900.344494 842.738690 786.911060 733.022490 681.204073 631.558646 584.162502 539.067237 496.301698 455.873980 417.773459 381.972809 348.429993 317.090200 287.887696 260.747602 235.587551 212.319247 190.849895 171.083509 152.922101 136.266740 121.018486 107.079210 94.352299 82.743246 72.160146 62.514090 53.719475 45.694234 38.359992 31.642159 25.469969 19.776464 14.498443 9.576372 4.954266 0.579549 -3.597104 -7.621935 -11.538283 -15.386766 -19.205457 -23.030071 -26.894135 -30.829152 -34.864764 -39.028894 -43.347883 -47.846610 -52.548602 -57.476130 -62.650288 -68.091060 -73.817376 -79.847144 -86.197279 -92.883711 -99.921379 -107.324211 -115.105085 -123.275781 -131.846904 -140.827801 -150.226449 -160.049329 -170.301277 -180.985320 -192.102493 -203.651653 -215.629299 -228.029415 -240.843369 -254.059930 -267.665437 -281.644253 -295.979612 -310.655031 -325.656525 -340.975852 -356.614892 -372.590608 -388.937329 -405.694166 -422.836996 -440.045055 -456.117144 -468.876670 -475.162125 -476.668977 -482.316160 -505.649860 -552.027221 -603.658959 -664.542702 -738.595616 -828.378831 -935.378473 -1060.384857 -1204.850598 -1372.996285 -1572.859617 -1813.172707 -2095.019785 -2405.478613 -2738.499734 -3144.395810 -2372.163400 -870.151388 1787.072449 4116.092916 5333.088998 5215.511559 4375.744189 4206.452767 4357.624854 4816.675699 5265.684094 5733.345067 6735.419004 7655.614928 8391.348304 9457.896103 10973.219968 12356.181783 13916.778491 15252.608197 16490.568762 17690.206827 19036.066023 20617.674971 22015.811870 23324.155486 24634.839488 25679.649533 26894.764737 28195.774570 28962.479072 29490.437521 29905.108543 30096.345973 -478.585107 -488.662375 -514.085198 -554.569107 -603.926213 -664.136343 -737.919930 -827.585929 -934.528822 -1059.432896 -1203.563263 -1370.874631 -1569.001995 -1805.624481 -2077.750260 -2357.476213 -2585.063332 -2673.473739 -2228.589034 -599.071002 2025.606599 4354.406616 5086.572841 4620.938194 4220.198344 4214.454660 4468.980677 4891.546995 5403.079656 6016.536349 6825.263173 7721.665933 8667.636694 9795.558289 11101.903302 12486.205374 13880.960986 15190.794970 16505.863811 17803.275363 19191.100494 20573.277487 21969.969493 23358.551456 24492.085393 25492.227888 26621.112827 27767.413924 28600.872762 29132.580385 29612.084368 30094.411303 30412.146864 -476.668977 -480.299218 -493.252199 -519.579338 -556.970441 -605.101438 -664.974728 -738.721079 -828.402455 -935.337810 -1060.224167 -1204.362990 -1371.598960 -1568.902265 -1801.906832 -2062.285347 -2308.109098 -2442.293266 -2285.416398 -1555.899932 -29.074301 1969.804544 3586.055705 4240.690638 4213.885142 4117.591985 4223.341278 4528.260941 4970.025837 5511.037801 6163.331560 6942.265076 7820.861834 8800.123669 9916.772373 11180.349981 12525.694614 13856.681926 15186.141931 16527.290786 17875.786894 19217.217852 20530.823245 21863.985149 23190.303291 24403.435312 25531.502221 26636.866786 27671.972785 28551.493642 29235.732817 29803.631143 30240.642242 30440.335596 30478.637647 7606.612285 8104.324829 9293.564805 8751.767495 13367.846220 14244.172074 15181.682182 19904.406984 18544.976032 9294.762924 22405.590914 22909.316323 24437.120590 26294.950003 26506.090453 25718.894122 28169.159173 28825.511769 29608.121844 30459.902366 10980.597575 14935.203648 7338.610844 18227.235570 9600.182518 13517.681847 10268.978509 18744.238138 20817.432580 19089.062490 23873.599866 25094.041145 27760.701876 27799.929869 27799.611354 25167.715860 29460.810094 27521.573040 30030.488643 30677.684932 15527.956276 16994.645599 10137.792604 22074.582443 12204.732917 20105.963330 20374.406421 27937.066471 23381.220227 23947.261262 24850.394469 25940.574896 23670.338210 27533.352676 27279.909605 27200.702786 27625.870957 29020.461174 30823.028718 29089.456081 21838.433817 25597.836991 16609.541640 20817.024807 17015.618726 27070.365010 17337.401608 24236.745978 22859.715115 26060.011981 26959.361578 29484.021199 27752.710434 27865.242411 26548.571598 29337.506325 29679.058703 27615.932848 30151.775873 29642.292383 20995.642021 26580.445537 8757.874955 17618.012896 24977.954451 22388.794789 16966.583936 22869.776504 24636.948728 16672.322637 28161.155410 24587.988784 25578.152810 28216.392759 27507.198150 29088.903168 27545.986445 28615.902527 28642.307271 29910.051607 11414.971480 19064.414176 12929.964321 14182.578808 15061.276160 18028.821087 20953.438093 27444.725693 19961.344041 22170.782385 26241.707100 27852.796224 21710.516755 22068.638022 27293.274458 27380.368811 27041.564441 28384.262990 27744.331240 29799.594078 21166.535182 17743.540325 20063.073166 17792.786727 13891.251813 23939.383921 27201.068425 23938.276867 24797.047289 19181.818081 26419.224978 25529.765883 27744.623557 27298.181637 25732.588355 25587.074636 27296.742497 27892.866887 29272.823850 29296.250736 20928.207336 15446.072708 17933.290244 20460.563054 19187.351432 17619.894756 14013.699359 19491.258592 23262.023170 19567.425632 27337.540267 25506.436199 26620.764122 27012.821690 27411.822067 27812.672847 26380.833498 27608.919984 28912.891935 29546.979999 16038.157901 15678.162557 19665.883105 10729.302443 21174.804457 15562.481754 19852.977622 16216.232613 17199.490296 19317.598271 17627.939059 20861.099567 22843.885025 25130.290193 26165.329422 22977.539838 26614.152174 22524.943568 29232.884433 29987.823670 13033.702053 18810.343965 24362.212748 13116.372703 18613.163708 22545.328012 17339.957992 17361.247856 17012.772140 24269.806912 22889.639043 22918.872247 23362.521667 24476.883271 22292.245171 24729.861983 28833.808694 27772.420841 24230.960225 30301.315542 20199.568537 24237.484027 17976.012730 19025.540243 23085.374468 24728.752251 19090.934614 19974.779969 21148.179441 21956.920451 21499.260996 26676.659932 21887.439572 28721.967114 24982.714066 27849.078067 24037.221334 28144.482393 30147.351165 29078.322920 10272.345264 10030.644848 14961.836936 23279.744351 16877.356926 19092.622614 15230.085752 12821.634944 19977.015231 27051.393080 23280.442185 21885.050419 27054.526977 22343.564257 21135.550893 28801.455260 27201.731028 26272.190208 27807.438406 30303.549272 13557.480136 14140.246413 14086.816227 16837.435836 19645.019948 15193.879836 17272.826313 22665.146874 20765.685624 18790.602551 16627.991242 23950.182025 19135.636287 26616.175557 25687.620386 23723.785783 27431.177113 27809.867863 29738.545433 29992.053009 9221.916203 10067.532961 16281.444477 12039.767373 16431.634968 19987.839217 16838.425225 18492.176470 16690.470972 23568.318991 22387.395874 26292.036249 28034.571932 25415.106566 27375.099787 25883.481352 28253.772181 28541.333210 28369.191510 30123.070878 8499.359685 8368.193108 12194.370206 15930.355363 16065.968291 21945.216509 16818.404201 23297.520255 20483.123354 16520.400769 25966.436048 21012.089742 27026.688884 26874.402410 26910.778661 22077.098184 24433.876809 30423.660634 27863.913730 29716.443385 10365.341139 9159.025611 8715.455000 9594.356810 18008.501393 23798.953154 14576.515224 12455.067912 21546.254858 15122.466542 21485.076287 18266.555189 27683.112171 25457.910570 28232.558179 26875.831924 24228.910684 28774.283095 27406.514909 29975.964736 11344.956390 10632.259347 8826.680821 10536.758900 13001.833034 12095.165638 18090.893263 21328.174713 19798.467299 18279.722440 14888.406669 25736.143233 24217.200210 27081.061946 22544.713160 26978.050607 24912.745767 27856.923509 29923.524328 30532.253665 7551.660520 7645.802768 7775.933218 9308.909265 10658.019168 12029.013465 14267.732018 13433.612751 15768.306805 17139.010065 25589.014560 20956.108029 21335.780878 21404.437154 25984.513133 24193.497000 25512.376361 29131.830132 28206.280743 29500.074559 10301.790588 9422.983887 9261.459420 10921.253945 9179.922950 9872.442856 11243.396638 12233.695172 22625.122961 23602.570453 23892.976251 22678.570736 28786.940764 25615.106297 27019.551175 27692.576631 28871.912985 27765.478576 25838.240976 28449.355128 8738.701053 7684.110713 8380.110048 9834.807140 10736.165098 10433.206278 10345.997174 18920.903703 17973.087373 16788.453241 21863.165547 20461.087191 27515.042119 27390.179735 28508.457124 27135.917752 28263.544879 29469.504792 29612.885079 28976.962977 13409.558218 7587.157032 8846.015877 9276.714899 10143.673965 13607.943939 13866.539342 15578.145048 15851.217626 20874.646679 22532.653914 20276.480665 22792.664704 27425.789943 24483.595541 26064.497245 26989.638118 27750.042013 26571.868244 29270.169742 5493.095179 8058.404970 8831.348048 9216.938091 13162.945208 11275.016776 14744.639557 16813.706217 13238.616984 14366.058539 24278.081215 25439.248728 24381.793709 26015.801720 27492.316971 22040.073940 23915.668644 25652.950028 29060.710822 29179.720338 11690.715497 9528.505101 12165.257205 9686.417072 11502.897906 10619.638007 15420.017469 14417.756751 17785.169054 20188.919245 18824.954127 24965.294199 23233.373063 25431.437893 20498.403204 27475.757524 28562.816098 29511.131639 28031.643741 29012.151480 3250.739969 9510.085495 9226.794554 9318.375676 11586.182352 10113.429704 18091.900238 15435.149801 12414.891892 21874.414386 24241.087815 25764.908417 24313.171143 26621.869799 28579.213947 28199.455984 27943.704114 29670.105988 28558.994431 28314.106924 11074.917030 11695.442835 8394.355183 9888.014426 16233.407653 11684.830565 12021.151787 17050.269640 13851.552612 16808.522956 16973.077818 21832.299130 20222.930933 18852.365267 26049.291532 25738.608753 28516.374889 27667.639275 27792.297374 28151.723499 11368.985310 9032.293815 10885.252987 8850.953877 12761.937477 12576.654208 13264.846781 13553.989401 15610.362974 18962.795446 16974.438659 18862.736362 23078.453577 23976.064025 18776.099358 24427.962085 26734.243330 27237.864742 27389.333197 27766.792077 10649.632123 7797.762919 9737.092159 10513.514886 15426.361545 12285.429326 11618.405357 14130.190606 15880.888960 22644.176128 15145.532583 21400.691602 19025.711303 24419.708280 22834.561000 25752.031452 26343.270252 28403.870652 28169.448063 8718.195038 7307.406385 9600.481594 8121.044771 10085.840863 13770.598340 11646.918166 14687.819105 21598.530769 18126.194525 21839.740024 23067.689669 24323.232227 19785.404340 23920.907717 26141.170029 26321.780955 25887.763380 27284.227166 8311.351421 8309.397725 12253.233327 8779.809399 13699.315967 12480.423870 9950.549399 13614.999779 16055.333947 16936.438061 21025.937701 15696.739590 22621.045557 17800.125767 25682.014244 24855.619922 26328.603398 25243.343429 26735.866082 7097.922942 9588.078496 9997.272279 8763.678635 10601.468183 13546.752126 13867.241111 13731.650818 15864.331301 17974.934149 16203.336564 20971.500245 20587.593061 22772.340412 23406.773293 23192.028448 24096.096508 26973.307774 26582.776361 8845.733996 7857.379058 12562.262652 11515.170680 8854.196073 9642.424447 14390.873330 14683.339900 13046.637593 13848.251850 20319.620117 16120.112592 20038.206771 21096.097649 19030.884435 24191.431182 24368.643267 25450.887252 9434.763360 8403.274291 9109.739770 10837.979448 12181.289442 11499.041368 12808.420634 12082.669234 15325.754715 17393.771200 15536.485201 20686.936500 22102.309159 23378.319996 25269.350606 21983.154889 24143.486147 24607.655003 7898.499908 9107.659054 9087.827149 13944.312829 10407.141939 12494.930465 10992.167589 14695.499300 16109.977049 14603.485817 17894.688839 21030.462686 19192.581211 23383.846117 22316.196387 23595.590705 27238.158633 8267.388475 7903.827174 8825.187000 11147.180996 12541.598099 12891.451226 18395.973796 11399.561352 10461.446446 17014.971473 18681.550480 20813.189649 24270.902219 23493.081450 23569.090065 25245.845644 24090.574334 10531.006985 9341.168595 10192.542602 9978.436378 16117.014562 20336.728333 14783.573019 12224.120293 13253.575303 19828.136733 17270.670994 20072.881799 23872.092899 24150.628771 19924.516044 22773.068363 24466.632013 24501.147440 5835.905492 10133.873216 16727.466918 9288.166739 9831.247037 10767.459335 14497.215445 17156.930046 20122.975448 22939.104777 20844.662625 21509.045040 21951.509178 21470.249625 23095.111117 23338.301807 10430.041155 8299.434446 11962.914926 10459.003873 10936.277516 15072.492065 15277.574589 17362.970809 14182.132433 13463.764670 19231.881313 21279.488350 23091.034691 22140.687926 19694.465020 21699.254254 8348.311178 8449.284810 8519.326718 10867.532901 19044.298051 15759.156367 16596.957197 16759.674167 14351.955789 13392.398863 21113.326709 20484.091955 21810.180590 23724.821219 23890.975497 22242.456493 9271.365855 8126.112268 8938.440319 11796.008470 11546.483826 10255.857741 16133.441959 9326.319327 13687.127703 17396.698534 18689.787307 21229.014425 20347.348683 19716.085185 22108.116069 9616.793958 8034.786327 10564.340046 9590.918941 13463.415395 10365.752952 12616.753195 13127.021051 17681.695629 18891.867785 21786.254755 20981.379972 19599.542362 15038.144854 21959.536924 5295.282740 9935.970400 7033.150197 8321.517258 12220.168345 11874.010833 9459.440211 14312.759780 16471.746241 11653.835423 21588.795752 15522.826815 23714.054489 18060.475146 21980.160650 8596.329333 8829.940679 8510.025167 9091.994680 11358.396172 11375.442002 13068.148589 14473.596844 14497.689163 10410.466806 19188.298573 21827.634469 23228.182878 21543.129606 3541.850430 7947.896825 11330.502624 13593.877687 15159.394546 12032.195106 10549.925753 15524.238514 15511.566173 18201.078566 18272.210325 17766.049553 21710.348032 20654.418640 10720.572644 10914.700385 11363.740811 9512.799951 14942.384381 9227.499013 15746.515356 17206.268766 10640.633426 12832.181481 18730.685607 20645.868753 15322.384365 20028.249620 9353.329579 15897.992049 8731.084938 13379.708024 16628.779838 14035.278735 18504.309331 16600.685725 18790.267420 17238.799718 17899.300743 19189.896677 18727.405122 11427.824857 9499.873308 8743.629548 14001.800886 8497.337365 16740.873536 10059.701992 15026.780657 18031.930447 17161.546612 17910.096691 20996.689800 18575.141655 3746.073308 9806.263216 14489.442382 11696.545528 13672.367398 13266.830375 14034.194133 9703.850864 18419.247160 15923.874609 16288.283569 18359.177926 18295.003172 10427.092511 8517.059679 8235.311388 9880.381207 9945.144244 14636.628451 13281.868840 18338.446382 18349.447867 16733.113989 16371.537425 15632.646369 6332.813157 10750.316046 9849.403065 8563.223106 8368.545195 8776.789461 13437.283958 17363.250888 16776.474224 19962.374149 19630.867023 17432.811438 9335.292733 9436.792686 8644.372047 13701.883300 8430.509696 12735.805926 16132.228401 12508.147959 20259.212016 17813.769552 16592.125414 17365.878180 17358.169339 1227.593163 10886.784467 13481.112912 12553.125775 12343.070887 11187.522734 10211.028384 18407.025169 14311.539306 11715.634468 18180.328716 9685.727784 10198.522982 3476.118088 11930.378234 14665.982738 10078.217582 10808.332627 8948.960052 20231.983796 11546.223820 16005.716884 4528.978086 9084.352327 9400.208886 8881.544337 9579.699049 13017.257213 12625.279699 17477.050084 15439.438025 16881.684767 15812.608094 3203.720048 11228.097562 10109.430182 9991.232740 11545.681381 9858.803617 9958.003997 13921.408626 11348.133034 14618.036865 7302.913665 10540.790376 9846.505030 11916.067137 13013.550737 11800.250149 15981.469289 17482.396969 17768.504421 13202.302780 1388.555040 9440.938019 10713.580807 10550.210863 11950.277094 12504.512282 12480.678507 17880.661956 18686.016262 13437.197761 14150.535844 7491.731611 13077.017747 10105.401072 12223.770838 11457.987104 11593.983350 12570.692508 13669.415096 6818.809199 8887.040226 10111.566637 10151.736783 10338.462339 13626.686056 10516.253242 11212.152595 13704.710313 7334.593330 9993.655324 10935.404302 11696.179548 12874.675108 11444.449810 14013.134929 14527.221512 12989.995234 5117.229640 7925.427714 4435.962620 10402.822395 10070.508925 10512.769779 14138.762021 17279.396318 9849.593206 10226.782324 9194.141296 10196.652684 12958.599174 12064.207813 10382.937763 10817.999692 3172.237843 8173.281312 10387.955330 9226.218754 10860.064352 9352.742153 15566.092542 11940.464989 2674.753873 6690.842433 9603.311516 9759.077646 11461.672919 11802.015439 8420.314554 10338.977228 10932.937170 5215.843504 10548.453027 11707.425908 8744.317647 11099.379891 5884.457224 3701.625034 11338.260706 3867.935878 10679.703802 11566.780711 11048.264501 11001.893061 12332.234866 6266.954700 11801.749311 7963.309535 9477.337482 12189.692520 1363.213149 8903.760375 10158.012205 10617.371188 9096.896677 12688.273004 4032.836764 10223.857861 8469.129311 11505.477569 10568.033511 9544.928263 1609.307489 8719.410742 7738.021673 10889.140952 8693.461842 4467.189189 8389.475661 10677.480474 9805.654523 12394.963629 1626.392291 4020.966138 5785.217565 6802.646255 7584.065132 11596.046441 3092.738485 7524.177810 9493.039403 9648.749420 4362.225963 3104.149346 7491.528636 1699.292088 2482.701186 9080.589991 6580.179414 9803.927214 6384.582227 8062.765375 6129.217794 5238.891666 5002.972483 5661.820814 3190.208910 2710.809388 5402.557551 5425.909016 10163.823369 2755.133965 3472.620512 5522.972469 2880.624603 7733.035093 3465.543862 3753.490319 -696.101762 3904.357807 8119.517659 8163.819854 8174.195463 8230.332795 8753.081564 6992.390673 8466.667549 8469.030874 4357.086139 10010.129713 5329.649384 5603.243434 11737.810301 8523.415385 13571.273822 8397.013437 10422.138929 10115.755149 9505.979518 12883.935857 10028.678042 9739.185417 17299.135177 13426.478153 9674.528246 10226.154652 10844.706958 11198.269242 9468.903987 7648.455939 8736.135563 11710.935152 16018.970033 11205.039714 19622.762424 18239.942886 11533.388293 10923.621551 9798.278419 8741.781475 12201.326073 11663.036536 9945.344708 7964.552123 8034.524551 8254.073853 9329.762847 9340.945606 14449.738632 8757.642397 8214.956681 16487.010482 18578.944620 12971.851481 8993.062807 8638.558398 15299.626582 15577.538116 8234.801209 9244.580612 8735.453076 9123.541933 10548.870715 12429.016245 13117.836404 15442.119491 14613.627835 11167.623250 11745.709438 8885.555441 15343.120136 11799.973701 22159.107407 8890.953701 9426.266464 8172.633067 10072.174646 8234.864277 8298.748998 12422.550706 10083.185681 13737.410199 13031.142529 12381.929711 11040.670027 18718.515561 15856.506041 11616.498856 8665.477223 7856.857161 8673.273256 7830.144422 8236.923159 9614.146047 8226.850965 15869.246207 11137.454494 14674.937416 13634.398004 13715.031339 14929.900428 15285.911233 17906.649323 7337.686644 8317.252594 7438.821134 11427.065737 9876.614141 10934.717444 13793.444427 11541.688578 16710.773142 11849.912443 10040.972708 10286.176953 13434.562790 15000.461652 21033.566840 8285.956786 7623.552996 8332.540479 9166.019289 7364.278855 11862.755003 13700.058492 8650.422443 12482.591431 19131.358187 13342.506441 14487.550432 12451.047856 12752.622920 12256.067634 8580.367670 8366.301488 8837.735177 8808.800850 11028.046462 14618.784083 10195.081510 13351.819031 8119.493339 11160.207172 15470.795135 17346.309797 14305.492994 20492.135479 19605.028021 7357.944946 8170.331196 8376.651533 8577.761051 9305.053482 8569.328625 8533.517105 12014.615928 15867.054839 16456.224002 11047.953392 11198.227114 12893.784419 11571.283422 20078.944125 6402.346807 8418.572046 9967.574543 8571.759708 8643.385990 12234.183507 10195.036424 18307.776504 9258.792774 8428.007625 9247.721887 14720.555986 14181.799874 9704.822185 13579.917203 8155.778278 7797.002043 8389.248098 9202.901682 8578.000744 8507.945879 9158.486238 11123.900422 8859.214929 8754.948992 8394.933527 12674.108809 9282.715441 8408.720715 11118.340505 7753.984285 7588.389099 8268.807307 8394.179647 8604.167564 9450.750732 9929.899721 8130.200707 9420.306313 13708.837358 8432.141745 9831.243827 8498.723005 9815.027923 10223.366378
</DataArray>
<DataArray type="Float64" Name="Velocity" NumberOfComponents="3" format="ascii">