<VTKFile type="PolyData">
<PolyData>
<Piece NumberOfPoints="2186" NumberOfVerts="2186" NumberOfLines="0" NumberOfStrips="0" NumberOfPolys="0">
<PointData>
<DataArray type="Float64" Name="Pressure" format="ascii">
 28703.014181 28057.836097 27236.440063 26894.527479 26512.307056 26626.432854 27003.881117 27177.841802 26899.045851 26763.366117 27036.576560 26925.998495 27047.162091 27619.525424 27964.429762 28242.761449 27854.083296 27462.021903 27331.774219 27316.271389 26752.258175 26577.165498 26588.645120 26418.539376 26774.415845 26903.520760 27947.656397 28377.529559 28571.792744 27942.837443 27143.094458 26967.392334 27496.636707 27977.328751 28144.487653 28018.804607 27968.590045 27780.448052 27323.380048 27221.031031 27877.729197 28562.739681 28646.478983 28139.806747 27643.343525 27546.489437 27255.451355 26843.013135 26459.845461 26770.635344 27201.132806 27328.214530 27095.201776 26965.207778 27862.126229 27846.961133 27979.030201 28258.424551 28238.934149 27887.043491 27650.991614 27657.554188 27717.819160 27664.849310 27610.932627 27777.111071 28034.629059 28216.735883 28350.287058 28531.138643 28804.103695 28851.922348 28597.246932 28313.072452 28071.024932 27824.898989 27592.145644 27504.243295 27513.071938 27515.862647 27298.722653 26971.121293 26873.134485 26903.520760 26758.282934 26485.889274 25860.572631 25254.084145 25038.140167 25040.778424 24729.809076 24062.394894 23496.184405 23029.954328 22563.351034 21688.226095 21016.011823 20800.113103 20789.452325 20656.139335 20342.309722 19987.542830 19991.143323 19760.623560 19238.543320 18640.933511 18059.823071 17239.291574 16476.413527 15964.981361 15903.989779 15941.963255 15736.081989 15274.900198 15056.090478 14961.172440 14637.814203 14392.958832 14196.677717 13833.187666 13516.925533 12993.502594 12524.847725 12058.015213 11500.525410 10904.939658 10690.041211 10576.535246 10594.193814 10810.932382 10785.908443 10668.653201 10394.124374 10007.936714 9419.699313 8976.041030 8846.748359 8875.457106 8867.763693 8679.214025 8533.335696 7947.123769 7423.028314 6788.912651 5813.053621 5172.737795 5291.120182 5725.510490 5296.062144 4665.894367 3772.009329 3328.218264 3256.433670 3441.531836 3541.147373 3477.514352 3299.452842 3030.399340 2655.574878 2384.515402 2158.522905 1966.413936 1780.386392 1659.100747 26965.207778 26818.363380 26276.601078 25913.582738 25719.854165 25387.413142 25001.584878 24660.595166 24328.401725 23882.156649 23205.882849 22687.071353 22096.320398 21365.425362 20914.409039 20793.287423 20758.852199 20630.455821 20296.576454 19902.712625 19603.205490 19465.609644 19051.399440 18177.715861 17225.547802 16499.607261 16084.469972 15963.693313 15886.135202 15735.963510 15470.528997 15176.932654 14905.332208 14592.711096 14329.407157 14212.996006 14025.970120 13527.059326 12890.870547 12374.238400 11914.959711 11446.428774 11071.669439 10847.330272 10698.768613 10676.556036 10696.126705 10601.872369 10415.695208 10157.935852 9775.304293 9253.150136 8782.737229 8553.541127 8466.659348 8263.721350 7969.149278 7761.784314 7454.144001 7033.668714 6548.635349 6033.835986 5789.683551 6026.043856 6340.805854 5867.456683 4795.774493 3941.637354 3596.244738 3578.618044 3624.409702 3592.719868 3455.268985 3231.871700 2951.924570 2637.500475 2354.750370 2132.507055 1943.528643 1765.280915 1689.809698 26873.134485 26866.142972 26636.814006 26251.550499 25843.680639 25380.130523 24888.055500 24471.897854 24122.097403 23696.949021 23164.313410 22682.224848 22313.286080 21964.815419 21596.073228 21206.217437 20810.884430 20453.082088 20122.873943 19717.435169 19309.314687 19018.504173 18708.457654 18185.766644 17530.562405 16918.345713 16429.816637 16101.062366 15888.097207 15685.181838 15456.483683 15200.902636 14915.249915 14620.969956 14323.817401 14073.706227 13866.318993 13551.045947 13088.833922 12591.911774 12129.434289 11721.706167 11396.194154 11158.336784 10968.451956 10813.714980 10680.928045 10534.524863 10337.333971 10070.581751 9728.105008 9323.920200 8913.001492 8583.939369 8352.114927 8122.835972 7860.260075 7601.024067 7326.234782 6996.762662 6628.433958 6272.740115 6031.183971 5980.746571 6009.460222 5839.376561 5316.931696 4642.953713 4121.244825 3853.759390 3755.773412 3690.859509 3572.486646 3378.679389 3125.523101 2841.602848 2557.388612 2301.490807 2084.755898 1899.080384 1756.478206 1708.888291 1659.100747 1553.062141 1386.618120 1262.404226 1187.665808 1135.770525 1082.980079 1041.271626 1010.095514 999.053532 1015.396483 1039.751592 1062.718306 1081.977665 1098.487861 1112.590268 1124.418273 1134.057413 1141.583933 1147.074093 1150.604532 1152.244488 1152.026160 1149.823171 1145.134712 1141.447890 1689.809698 1638.684711 1547.397135 1418.361462 1299.913467 1211.302923 1150.641726 1103.986071 1062.546046 1030.193634 1012.902076 1016.258139 1033.134102 1054.000878 1073.221600 1090.207838 1105.003994 1117.666972 1128.257851 1136.840169 1143.480660 1148.249756 1151.221825 1152.475364 1152.095568 1150.198801 1147.121074 1144.617452 1143.743215 1708.888291 1682.374735 1630.332860 1539.217890 1422.967695 1311.175009 1221.610309 1157.352739 1108.816152 1068.140502 1037.338063 1021.654431 1022.887860 1036.726722 1055.283081 1073.700975 1090.479585 1105.219108 1117.858680 1128.427921 1136.982507 1143.587926 1148.316309 1151.248251 1152.481571 1152.159536 1150.552823 1148.226661 1146.086054 1145.118238 1144.972311 1141.447890 1132.849103 1116.361007 1099.513351 1082.096015 1063.835596 1044.727692 1024.827005 1004.204082 982.931796 961.081348 938.721114 915.916386 892.729380 869.219331 845.442613 821.452853 797.301041 773.035626 748.702595 724.345549 700.005754 675.722186 651.531570 627.468405 603.564982 579.851401 556.355579 533.103264 510.118037 487.421331 465.032436 442.968515 421.244630 399.873763 378.866851 358.232827 337.978665 318.109441 298.628397 279.537020 260.835126 242.520965 224.591320 207.041643 189.866176 173.058108 156.609734 140.512627 124.757831 109.336067 94.237947 79.454219 64.976015 50.795125 36.904282 23.297476 9.970274 -3.079831 -15.853053 -28.346931 -40.555922 -52.470972 -64.079080 -75.362824 -86.299891 -96.862571 -107.017250 -116.723884 -125.935465 -134.597483 -142.647380 -150.014008 -156.617099 -162.366735 -167.162849 -170.894743 -173.440641 -174.667284 -174.429571 -172.570260 -168.919741 -163.295874 -155.503932 -145.336624 -132.574238 -116.984898 -98.324950 -76.339472 -50.762930 -21.319914 12.274158 50.312839 93.100498 140.961267 194.271741 253.573819 319.948139 396.644978 489.389026 546.402534 1143.743215 1139.639499 1129.913735 1115.380043 1099.282404 1082.056485 1063.850796 1044.756891 1024.858060 1004.233388 982.958354 961.104954 938.741807 915.934272 892.744583 869.231976 845.452823 821.460745 797.306729 773.039220 748.704203 724.345274 700.003699 675.718452 651.526258 627.461613 603.556809 579.841945 556.344939 533.091537 510.105321 487.407723 465.018031 442.953410 421.228919 399.857540 378.850207 358.215851 337.961444 318.092059 298.610935 279.519553 260.817728 242.503701 224.574254 207.024828 189.849662 173.041937 156.593939 140.497232 124.742853 109.321510 94.223806 79.440477 64.962643 50.782080 36.891508 23.284900 9.957809 -3.092288 -15.865625 -28.359758 -40.569164 -52.484810 -64.093714 -75.378479 -86.316812 -96.881029 -107.037538 -116.746320 -125.960392 -134.625269 -142.678416 -150.048712 -156.655911 -162.410119 -167.211290 -170.948745 -173.500727 -174.733992 -174.503452 -172.651875 -169.009654 -163.394655 -155.612142 -145.454818 -132.702956 -117.124662 -98.476256 -76.502802 -50.938780 -21.508920 12.070794 50.091937 92.852277 140.654140 193.802176 252.597014 317.299854 387.769494 461.405014 514.377596 534.684257 1144.972311 1143.409924 1138.122664 1127.987490 1114.585857 1098.979414 1081.930991 1063.784801 1044.712048 1024.822188 1004.202599 982.931340 961.081207 938.721071 915.916373 892.729376 869.219330 845.442612 821.452853 797.301041 773.035626 748.702595 724.345549 700.005754 675.722186 651.531570 627.468405 603.564982 579.851401 556.355579 533.103264 510.118037 487.421331 465.032436 442.968515 421.244630 399.873763 378.866851 358.232827 337.978665 318.109441 298.628397 279.537020 260.835126 242.520965 224.591320 207.041643 189.866176 173.058108 156.609734 140.512627 124.757831 109.336067 94.237947 79.454219 64.976015 50.795125 36.904282 23.297476 9.970274 -3.079831 -15.853053 -28.346931 -40.555922 -52.470972 -64.079080 -75.362824 -86.299891 -96.862571 -107.017250 -116.723884 -125.935465 -134.597483 -142.647380 -150.014008 -156.617099 -162.366735 -167.162849 -170.894743 -173.440641 -174.667284 -174.429571 -172.570260 -168.919741 -163.295875 -155.503932 -145.336625 -132.574241 -116.984908 -98.324983 -76.339580 -50.763283 -21.321065 12.270402 50.300583 93.060508 140.830760 193.845818 252.183105 315.418260 381.636719 445.152862 496.368698 521.962725 528.228649 546.402534 627.369832 777.760656 926.706487 1078.383191 1236.526352 1402.135563 1575.546281 1756.871963 1946.147218 2143.381229 2348.590862 2561.835707 2783.263434 3013.169170 3252.070162 3500.794439 3760.577433 4033.149989 4320.775762 4626.135710 4951.829628 5298.936980 5675.472262 6066.118480 6428.125238 7076.567071 7554.588252 7955.431194 8737.819326 9278.231593 9908.342877 11200.169866 12332.797771 13103.101011 15724.346410 17027.201006 18158.336802 19705.854276 20474.039309 21260.107141 22084.153923 22895.199365 23725.865118 24313.299589 24778.940720 25234.608734 25628.980079 26533.837852 27950.743091 28703.014181 534.684257 570.840564 658.153309 787.835978 929.204973 1078.899682 1236.448612 1401.878387 1575.235389 1756.546423 1945.819205 2143.053920 2348.263556 2561.504955 2782.922888 3012.808991 3251.676283 3500.347754 3760.052928 4032.515979 4319.994641 4625.173628 4950.691964 5297.827859 5665.195352 6059.695779 6482.600173 7011.867832 7532.867030 8033.058241 8692.973860 9345.732680 10153.067697 11398.822664 12713.784290 13724.365293 15080.715160 16633.978102 18613.057834 20015.952063 20774.798621 21492.594856 22245.361287 23060.451592 23786.209868 24321.891597 24847.822021 25609.658784 26571.048853 27528.155992 28195.942620 28230.811113 27947.656397 528.228649 541.579684 587.836481 677.551244 795.702352 932.111436 1080.051735 1237.039626 1402.293564 1575.594921 1756.886939 1946.151828 2143.382644 2348.591282 2561.835786 2783.263301 3013.168639 3252.068515 3500.789558 3760.563503 4033.112249 4320.681515 4625.933774 4951.543323 5299.359514 5670.181810 6069.960746 6516.785822 7011.488392 7532.171649 8099.466550 8736.203015 9452.302487 10353.371455 11483.918880 12697.574481 13819.608023 15022.453853 16791.538333 18647.759698 19917.338759 20825.289495 21588.402742 22321.229420 23071.448286 23761.396539 24364.413616 24967.211878 25710.378480 26561.579477 27267.828274 27622.821634 27737.623177 27803.725847 27862.126229 9402.371223 9551.105133 10388.777050 10885.950573 12137.942555 15473.462631 15287.213271 20957.534948 18029.101829 11046.685545 21750.073207 22312.489619 23411.177508 24502.523222 24645.254916 23717.970822 24943.546815 24938.741595 25550.525439 26953.910926 10666.824572 16723.986072 10010.136336 19619.477049 12750.798992 13263.795297 14466.843791 19485.462250 20227.098182 19919.708069 20786.766473 23365.132281 24932.206544 25737.812905 25037.033435 22886.090144 24930.748044 26168.148340 26396.284984 26693.096526 15524.846359 18002.843740 10992.819044 21120.425915 14524.386793 18732.036919 18812.213124 25221.507805 21975.787298 22387.427849 23646.070484 23766.819126 22597.213738 24352.692880 25800.174232 26105.315175 26302.330478 25250.514251 26283.225830 25553.474927 19993.506162 21827.655753 15576.861268 18652.309941 18374.475848 23917.564167 16817.690562 22446.094005 22424.066848 24053.650249 24260.367924 26213.857169 25069.899409 25114.260590 23222.245814 25337.699951 26287.752804 25917.080900 26321.173918 26168.885908 21265.113911 23907.460738 14112.304330 18040.099997 23417.222368 21325.833842 16677.623239 22635.692440 21639.205443 15984.129861 24881.765182 22463.486870 23225.155220 24840.472769 24071.671047 25251.669253 24524.204454 25300.108200 25104.566563 26025.494249 11388.058302 19569.896518 13415.062035 13413.858796 16067.113788 17975.633306 21020.067348 24877.887058 20715.139034 21336.194335 22917.344965 24617.819730 19740.553207 20320.378647 24457.636484 24878.825246 24480.700968 24798.252791 24863.831688 26358.298374 20958.589008 16404.955826 19923.589088 19092.177453 13659.088165 23190.955840 24235.961751 23232.780777 22551.474667 16558.058310 23754.758717 23737.021088 25085.998063 24810.946190 23316.508829 23480.133181 24925.287190 25493.583573 25925.141737 25780.580540 18237.216070 14214.515547 15892.187905 17976.666944 17633.472378 15190.457941 17348.295586 21289.967185 22345.682793 17938.334446 24328.615348 21262.170774 24281.035986 24460.900986 24530.873209 25214.660275 24281.718689 25049.327934 26505.988824 26191.977125 14073.920503 13393.369808 16149.989742 11675.847924 17893.460087 14627.404704 19274.337626 15983.611185 14994.626373 16761.966855 16865.125674 19358.164407 21655.853561 23493.226142 23442.612679 20757.520195 24218.181420 20611.569814 26069.844362 26676.403424 13390.154893 16611.285755 21032.029135 14016.746743 15300.066433 18855.987265 13472.459927 13774.890417 16341.574945 23711.680683 21146.388996 19375.905382 22345.193012 22353.390748 21114.838896 22459.409548 26448.994627 25287.267289 22466.413853 26266.128103 17235.267314 18683.180001 14000.375321 16728.787225 18494.055099 21189.607517 16940.636560 17076.104430 19661.130525 19785.790299 17455.986228 24166.952911 21225.752731 26430.393705 22316.852952 25248.929031 22241.408962 25235.566486 26831.881215 26455.130466 11110.425572 11488.032807 14383.770284 16252.948795 14123.206970 15775.811110 14648.045116 12580.921081 15183.224428 24221.756503 21024.514526 15791.581504 21044.835191 19797.243902 19802.777672 26282.486085 24178.658133 22590.383553 24984.994142 26566.237088 14607.725003 12212.120475 14875.060898 15175.829364 15666.643362 13432.850321 14419.102818 17411.826163 14923.968280 15812.351500 13788.222820 22259.581547 16555.099515 22648.131515 22431.559131 21005.988122 24803.559255 25283.882098 27598.508256 26887.922566 10958.736510 12361.604287 15819.593742 12744.668849 14315.868319 17149.167203 15126.512883 16291.000504 13312.588701 19708.533764 18222.974512 19559.311696 26039.844970 22459.979638 22347.290605 23545.562213 27432.290265 26347.694147 26279.755694 27834.098266 14832.288271 11471.008775 11782.805254 12767.943812 14873.988816 18275.801733 13773.871595 19590.926265 19855.786886 16561.074307 21160.606923 17093.251423 22557.316194 24348.005639 24490.477291 17274.832802 20653.969585 27857.615299 25053.543418 27804.603603 10609.303487 10921.737512 11470.925046 11868.888453 17104.254795 19522.243894 13672.030789 12377.864987 17862.001383 13004.761364 16557.297356 15887.312869 24382.457148 23417.723163 25360.979289 24141.771227 21105.800960 27668.878171 23442.886375 27946.940232 15904.492948 12199.129955 11391.989187 11388.305086 14369.989640 13685.422005 14882.853655 17003.160602 19026.434414 14043.310910 14112.236503 22705.942699 20251.463508 24673.861720 18875.832602 24227.253067 19714.088838 23574.841570 28135.022104 27720.580371 10829.264500 11341.167097 10853.269091 11543.588231 11707.617076 12306.173809 13619.893888 13171.205760 15016.106026 14874.802888 22015.967102 15879.393879 15905.943408 15421.214225 23690.990527 20055.347927 23602.198796 27269.149858 25868.942998 28091.847937 9170.056474 10836.274330 11311.044622 12563.895282 11615.213962 11850.631590 13354.807867 13584.179987 20325.019497 22332.975884 19723.108554 20484.933157 25820.668393 19468.189443 24505.729716 26203.106466 25630.992090 25354.707788 23503.070980 25781.303616 11032.357805 11182.140135 10792.786077 11772.469324 13097.715071 12488.596107 11645.974775 17977.566419 14455.499974 15544.538609 19836.599850 17628.955804 26324.357631 23517.694200 26378.104617 26095.705930 25268.331059 27576.222897 27373.210564 26638.377900 11173.119499 11095.403957 11427.350846 11366.353549 11989.236230 12833.785664 14001.163069 15358.221615 16225.810158 19023.806587 17359.468589 16877.800336 18543.561940 26587.760058 17677.842725 20924.879648 23376.231539 24562.961081 26177.533363 26622.892718 4749.651544 11739.054679 11096.583716 11649.997714 15120.826678 13353.898238 14252.700920 17085.405463 13830.926912 13572.220003 22875.368153 25314.929098 23127.606820 23646.125569 24372.070063 18147.730338 23756.297475 22396.913472 26074.620839 26208.849130 13958.649098 11427.601486 14225.157282 11244.521379 13229.073678 11379.477268 15238.990195 14155.657478 18480.337074 18332.258116 17515.791701 23163.104380 19620.075482 24346.566054 16055.794546 25655.568994 27835.519903 27315.464349 27847.295661 25690.362613 10863.973152 11154.374403 11663.270336 11666.861190 12688.413477 11318.212199 17014.981558 15862.379219 13164.599362 19037.567496 22048.978056 21217.334384 22289.892684 23941.012824 26664.428221 26924.008273 28310.497790 27634.652642 28290.797084 26977.454231 14953.277945 13096.919870 11012.019544 11689.229513 16088.994062 11952.522502 13259.037463 17013.147382 13079.105289 15062.126374 16461.947958 21440.227019 16274.209760 17534.091964 25629.647652 24223.351707 25131.259765 26635.876792 26359.838293 26496.800926 12034.605781 11214.787400 12539.375971 11182.412198 12935.515064 12311.275692 11721.735081 13628.408335 15020.752522 17386.492400 17138.855748 18609.412239 22065.603050 21607.459779 16605.943920 23830.993492 25530.316227 25028.624050 25972.748000 26976.568552 8085.176706 10789.144734 13867.388203 12092.779461 15704.099979 14774.216581 12213.527568 13437.710174 14714.617481 18554.025239 16729.799247 18830.946852 17687.197758 21133.108358 24865.825208 24591.759899 25241.075317 28025.008834 26348.863785 11151.442518 10511.014025 11251.506834 10410.153997 12527.630208 13202.330643 12161.396807 15250.918887 19649.101914 16198.864655 17219.470928 20318.444785 24909.644460 17416.632582 24421.970120 24679.601547 26241.523125 23681.349996 25423.050328 11706.692915 10829.612468 13166.487852 11256.337565 13812.697300 14734.982381 11841.248702 13868.233950 15952.978164 18184.870901 20257.858221 18203.544115 22600.327280 14941.233528 23979.032339 24557.687854 24266.516582 24377.958227 24849.929040 10326.365106 11595.181185 11777.903505 10994.035689 13118.139449 12469.276105 15014.003965 17566.719080 17999.168367 18369.234117 17783.216187 16828.213245 19646.634094 20594.668331 21644.544575 20606.322513 22542.243051 23449.850206 24822.650557 11228.081962 10548.437362 12812.412449 12196.058600 11001.692045 11477.058020 13896.704689 14740.356241 12209.754935 13324.135646 17800.285443 14132.628662 19794.403450 18964.201470 18727.197360 24497.265069 23702.804055 24588.562652 10536.092581 11331.715775 10931.670332 11256.173805 13589.382383 12577.323252 14371.726697 13641.850041 18257.655793 17218.282487 16039.906743 21034.623850 18747.321529 22692.593271 23907.854316 24086.468469 22897.762537 23885.380062 11306.787247 11087.433527 11564.099054 14790.559127 11767.359152 15186.857221 11834.704440 15897.692307 14836.410538 17742.699069 18938.584471 21473.413516 18771.455624 23552.820112 18756.999487 24612.751912 25038.311467 11550.461565 11025.546734 11242.506200 11682.098880 12706.763074 12907.870103 19981.471949 12137.681755 12763.451917 18925.352552 16537.025491 21517.608049 24913.102575 21325.318015 19171.266683 23062.764249 23047.120759 11474.079964 11461.405456 11876.884493 11382.804491 19689.041395 22355.683287 16012.411854 15434.757178 15062.455181 23486.019675 16340.548353 22892.372082 23093.699678 23745.015586 21309.606291 20988.148818 22627.228314 22632.510574 9796.507569 11935.675578 19295.704726 11071.895306 11639.288615 11676.163207 12995.203144 16986.942345 21401.371185 19999.589602 21504.256884 20330.980750 22186.271233 22583.998431 22597.439101 21192.680887 11400.896274 11429.380421 14015.989550 12782.435251 12328.531785 17624.697926 14013.574919 19239.050241 20434.672672 13573.722390 20435.505837 21568.397981 23148.001714 20886.250430 15942.982633 21386.973069 11546.746708 11439.123568 10909.956364 14351.878850 22420.621769 19200.008147 19234.479123 17286.654895 18341.770642 13326.281344 17651.222991 21495.990177 21749.487858 23147.697458 23694.419043 20929.425984 12134.107856 10798.042620 11468.748603 16665.907138 13344.544619 12405.545478 20261.391867 12845.178342 12643.943213 20777.039601 19732.600432 23333.619245 23207.753815 22890.237990 20777.340524 10886.107606 10674.879145 11970.506923 11283.740455 14995.102463 12157.627870 14049.609289 16226.533745 21439.827533 22380.877324 19704.800368 24018.550641 19988.494550 18577.350754 20267.248777 10576.609949 10518.141544 10875.006883 10977.889130 14653.208710 14935.260289 11515.043561 16940.786676 21780.021733 15287.387379 23778.452643 16177.034225 23063.899223 21318.050645 19912.358283 10955.198695 11519.518785 10825.195203 11442.324333 14234.319542 13241.449785 13835.898365 16382.086321 14879.160726 14196.017568 22433.213333 22312.356684 21740.007693 19666.000313 12263.971397 11826.858006 12517.863755 18043.171437 18636.283756 14162.348733 11633.304251 16191.833279 19426.360628 21397.084454 20540.775703 17338.139750 20501.037450 19340.161146 10659.596207 12075.429857 12575.574538 13254.325664 18391.344280 11085.121914 21076.856407 17373.536916 13370.610725 13953.970875 20720.236743 21644.680303 16479.832909 18795.549841 10657.983597 16524.775830 11460.816519 15512.035140 18070.152734 16219.839292 21776.021509 15869.238605 20278.115675 18841.113914 21269.185381 18334.765373 17919.402422 15588.838446 12137.069874 11360.504853 17442.963294 11052.632642 18849.383960 11510.818275 19785.524471 19586.455815 21633.178877 20147.673418 20697.743471 17619.745950 10900.025231 14012.361965 21315.540087 13965.589510 16841.150768 18166.817453 16845.661744 11545.861063 20123.764734 19846.139160 20103.072277 16861.514925 17274.659110 13298.684506 12240.893051 11997.469702 15034.403838 10484.805999 17115.340511 13681.120517 16854.308260 19469.146171 16413.065406 15804.704352 16745.877413 10089.494820 10124.664840 12451.910174 10474.522860 11593.725598 13790.832731 16280.175036 21202.526414 15886.533409 19474.775316 18428.839251 15920.054134 12272.636132 11295.508139 11137.832823 19126.373575 11032.293044 16780.703235 20116.057796 15448.709706 19084.823112 20632.289193 18391.808890 15918.711317 15918.381273 685.867508 15424.027366 14604.204350 16943.730211 14435.285963 13140.523194 15129.540478 22293.012254 18836.220580 16572.344033 21281.067330 14510.544119 9761.095507 10386.420788 12758.866523 19503.004200 17208.705491 16249.884340 10348.577370 22144.656092 11882.376404 15523.078272 3113.062449 12065.616827 11439.922916 11951.957352 9027.585929 16450.890476 15811.718513 21062.267305 15053.640278 18640.913738 15148.047824 10410.580060 15918.168011 10842.008563 13537.785061 14463.227417 11642.281726 14149.874387 17698.101095 15806.647289 14888.131269 12839.561990 14493.148838 10514.267286 16518.531390 15497.258436 15671.464100 17086.589526 21277.256848 21128.897092 17945.385253 1030.198716 6923.298732 2893.122336 14387.031184 12612.995416 17176.482291 13103.246151 21204.590680 18494.650746 14371.242648 4214.157898 12876.382154 13622.612481 12783.214706 16454.948424 14640.765298 16782.044441 17996.611727 13950.019960 9026.745417 8228.586510 14444.617181 11758.200133 12783.189753 17260.420756 15260.604287 13645.471334 13857.579332 10482.063771 10295.571882 12865.904040 14859.835830 18713.646279 15489.390979 20081.215959 18728.278875 13410.802073 11513.660450 12341.038421 12515.033565 13183.496015 14482.096373 13034.448927 14792.654432 21086.792583 7549.211306 11304.552942 10553.671245 12585.219013 17423.830268 13218.892597 10520.033265 14740.621603 2266.700971 13058.349099 12910.177565 12460.153934 12503.867436 12243.768486 18284.860442 12305.043125 5930.889488 5613.915420 12410.674916 14797.339156 15248.725472 17127.690267 12415.162189 9849.410131 11305.508704 10216.662446 10521.972796 16661.109956 13139.179935 10795.661750 10987.422860 10320.889368 15048.648960 4197.843257 14418.536451 14707.021018 10762.741801 10758.431781 4626.787578 12359.702174 16374.250337 10647.919249 10748.802513 16078.910342 995.370643 10810.660902 13678.482118 16566.196889 12549.231659 17161.494528 9078.324797 14470.444727 10900.200810 11816.120918 12495.649591 10887.129845 1176.358407 12728.685193 11934.412603 15353.557806 10878.642517 8696.333434 14389.368165 14458.067383 11593.685868 16105.063899 3118.458171 10528.315430 9860.755170 3733.096050 10225.602817 10278.824049 9650.917889 9756.904883 12482.513575 10993.861104 3155.456404 10425.456531 10893.997853 1246.591583 10830.407112 8886.886078 9072.662425 12252.169770 10869.859290 12850.116008 8983.987885 11375.324144 3963.271774 9493.571526 6403.928483 10599.748857 9518.980759 8521.441709 14788.849985 1719.806583 7293.696978 11247.365895 7928.782309 12961.516293 5510.324991 4978.918648 8899.865406 11804.311475 10991.501400 10875.965774 10109.890059 9842.625285 10077.227945 11183.180690 10588.921236 12382.549346 6371.617221 11683.325862 7647.707939 7759.397626 11698.509442 10635.629430 12241.927533 10104.982880 11007.230958 11857.513815 11442.043409 12903.198162 12894.806349 10604.972881 18519.372188 14429.513128 11415.071491 11136.291184 11510.762295 11636.537788 13068.312741 9822.009859 10687.210646 13690.569102 17531.086972 11872.594857 18821.062205 20299.459302 11765.778752 11236.930031 10144.647703 10286.382707 12002.827816 11819.664089 10570.042581 10826.110896 10421.848279 10613.293074 10503.061360 11305.894475 16014.317004 10673.774988 10204.860484 17667.618585 19211.807022 14987.540333 11143.482464 10216.357128 12881.996287 15413.931230 10333.983613 10354.831081 12799.332152 10401.917313 10725.612311 12517.080997 13552.089146 16543.165342 14750.483285 11186.138141 11314.517948 10826.382352 17604.765656 12008.048974 22508.547898 10824.299226 11288.453523 9831.145754 11668.474224 10417.472277 9888.277606 13025.756352 11549.039575 14889.466185 12488.844894 11970.326921 11682.339723 14715.184566 14791.602302 11078.444356 9962.243745 9835.761050 11411.002267 9825.787701 10561.035409 10978.431254 9741.225681 14132.610627 11900.387258 12937.046155 13184.004631 12619.494960 13086.960957 14142.019755 17735.782169 9849.635460 9932.923762 10661.833290 13138.929706 12050.642043 11615.110578 12175.914506 12212.957847 14657.575947 12034.366879 11189.687740 11028.603121 12972.454535 12371.375894 18488.401569 9582.449297 10725.239608 10431.638120 11582.962638 10660.222539 11832.940251 13308.001902 11144.413329 12420.754988 15477.499077 12163.984239 12720.591914 12828.231174 12685.303429 12527.775336 9858.124319 10772.384745 11074.679981 10899.678958 11893.900793 13557.963711 12164.220333 12268.172877 10693.722474 12043.773064 13317.820907 14138.149762 14871.185837 18365.748349 15543.941034 11359.126073 10164.014242 10872.719320 10427.892646 10952.553187 11033.800779 11010.587866 12248.803689 15161.474947 15485.859328 12677.209883 11473.440396 12420.215033 11765.752439 15821.312802 10728.495139 9989.982567 11758.604500 11055.358179 10651.367172 12720.698586 12282.300144 14776.793501 10859.466324 10953.274755 11184.761211 13833.858522 14709.869997 11377.319222 12376.527372 10776.848001 10644.189155 10684.181428 10995.273912 10800.990189 11468.183070 11273.560047 12736.211423 11392.501741 11522.568446 10676.551558 14097.160006 11490.468622 11346.021439 11587.508222 10707.126335 10650.562631 11641.522257 11464.608976 11498.048944 11522.133611 11852.431294 10898.064378 11986.838578 2106.991777 11226.113784 11646.154117 11770.630970 13398.532468 11506.555712
</DataArray>
<DataArray type="Float64" Name="Velocity" NumberOfComponents="3" format="ascii">