<VTKFile type="PolyData">
<PolyData>
<Piece NumberOfPoints="2186" NumberOfVerts="2186" NumberOfLines="0" NumberOfStrips="0" NumberOfPolys="0">
<PointData>
<DataArray type="Float64" Name="Pressure" format="ascii">
 27702.029244 27218.474071 26690.515586 26731.790337 26997.602107 27294.365840 27177.703995 27157.322916 27251.240724 27012.276945 27651.558991 27623.675191 27554.571579 28044.368841 28457.510273 28124.165958 27374.288480 27186.327540 27278.307643 27106.883750 27130.841321 27007.629696 27329.686526 27234.468125 25803.902859 24821.575830 27459.736000 27665.984479 27723.124216 27544.046942 27437.624756 27447.563687 27498.508419 27700.419927 27897.989073 27916.312585 27672.435917 27498.723479 27565.637841 27981.397471 28596.594120 29005.747141 29083.717275 28711.108383 28010.458352 27392.776175 27325.797268 27686.865707 27869.074968 27439.205299 27014.183746 26328.877209 25101.690874 24545.257436 27432.374800 27430.439119 27448.740132 27424.338683 27333.235019 27279.869864 27320.079413 27412.156160 27636.136913 27866.506179 27963.293218 28022.072793 27962.228034 27919.576444 27957.671185 27920.054613 27842.064539 27791.946534 27795.374430 27824.600406 27818.894499 27784.834987 27672.968076 27415.212932 27022.465866 26496.405324 25745.529192 24840.900960 24500.273638 24821.575830 24919.765995 25397.479267 25423.260912 25252.113264 25294.826944 24736.170830 24170.407627 23423.188942 23096.641236 23212.741449 23192.535032 22447.499415 21763.094527 21337.471828 20653.339760 20044.666263 19715.260994 19585.260690 19208.357581 18911.236340 18502.291914 18175.490648 17752.430145 17293.833925 16767.333073 16182.512377 15906.841421 15600.470353 15249.427825 14579.085974 14408.195550 14666.997047 14725.516770 14538.975582 14071.416934 13543.186792 13136.431760 12442.584731 11672.725297 11372.582545 11435.933659 10961.932476 10786.866997 10663.930529 10622.470874 10525.053168 10509.511812 10495.809700 10393.309970 10095.874162 9865.748739 9495.973589 9150.726043 9201.948170 9511.668817 9733.700527 9336.579677 8736.724800 7872.225959 7726.106745 8438.639991 8887.993306 8548.059268 8297.669324 8001.150629 8499.896828 8592.643492 8423.198685 7823.420045 6800.937879 5979.692559 5542.535166 5397.739367 5630.187805 4790.535418 4534.513582 5078.413470 5684.046535 5196.901743 4453.232338 24545.257436 24707.197089 25339.504908 25619.733450 25411.426021 25091.138374 24787.165493 24425.805734 23859.594221 23372.264428 23288.551773 23287.702382 22799.056370 22092.873184 21401.321588 20756.738630 20300.302962 19988.084226 19708.547804 19309.804554 18918.705368 18568.443086 18336.118965 18023.265530 17387.709820 16639.373019 16154.768971 15966.245055 15672.863785 15281.855020 14857.840133 14585.352278 14497.382506 14503.470484 14370.766025 13973.013477 13526.124140 13065.352864 12438.166019 11831.919610 11527.178133 11317.530562 10993.786974 10889.371172 10846.770254 10670.155838 10559.181216 10573.866913 10560.744875 10394.894489 10156.848546 9913.356378 9632.429596 9416.235658 9433.378470 9626.571534 9799.910612 9570.793843 8845.392520 8214.870071 8137.529969 8446.941327 8676.141793 8409.059148 8025.780263 7958.363222 8255.522162 8524.577687 8255.379166 7528.000288 6760.594766 6220.465402 5975.410970 5865.246706 5761.767585 5632.816308 5516.594720 5596.594757 5457.479232 4773.761194 4253.378264 24500.273638 24525.538457 24804.967602 24994.997029 24927.106822 24661.968487 24415.362157 24159.473841 23849.228592 23557.949017 23346.478739 23086.950558 22674.184249 22203.628980 21718.562244 21218.544296 20707.771640 20210.984195 19754.230719 19320.817494 18852.043607 18392.714173 17997.470104 17632.817727 17201.058952 16723.074570 16321.749819 16038.973230 15835.194904 15621.176403 15352.410154 15041.901792 14750.973239 14519.646948 14285.040351 14009.958816 13676.376410 13269.154017 12776.534898 12248.179766 11830.694451 11509.079140 11197.697488 10963.273199 10843.709469 10739.298733 10631.825880 10574.404795 10531.699629 10449.281358 10318.638294 10139.361516 9921.025639 9721.896919 9619.233985 9612.991895 9609.807184 9467.784959 9096.235989 8642.252134 8357.153617 8307.533806 8350.092242 8290.421190 8097.707693 7938.166180 7934.402792 8026.978499 8021.471433 7783.712409 7378.700058 6957.639353 6629.509490 6402.733802 6234.925648 6092.140580 5948.785085 5801.367279 5554.403819 5046.975858 4379.790971 4092.002417 4453.232338 3790.456355 2773.177353 2128.554981 1806.784220 1636.705335 1534.185442 1483.821556 1457.817836 1455.841370 1484.089335 1506.891942 1511.826640 1502.853216 1486.260065 1466.687749 1447.288237 1429.882790 1415.205217 1403.211093 1393.375738 1384.922669 1376.937708 1368.232928 1357.138069 1349.763607 4253.378264 4162.421299 3656.588444 2864.115730 2240.988756 1865.084183 1665.363596 1563.177185 1509.116460 1482.561519 1476.067042 1488.629926 1505.760886 1513.852876 1509.340695 1495.959041 1477.969605 1458.750680 1440.569188 1424.637557 1411.326527 1400.426410 1391.388209 1383.511123 1376.073507 1368.451559 1360.522783 1354.969872 1353.010393 4092.002417 4091.318427 3974.222026 3508.674410 2836.191080 2261.736903 1884.841410 1676.410443 1570.670330 1517.580915 1493.506766 1489.211993 1498.166162 1510.239398 1515.013487 1509.355809 1495.668720 1477.606330 1458.386730 1440.230207 1424.331560 1411.051701 1400.175802 1391.158687 1383.328376 1376.064001 1369.021684 1362.477407 1357.431789 1355.196907 1354.775873 1349.763607 1335.652352 1308.822058 1281.537308 1253.281099 1223.536348 1192.271370 1159.581921 1125.612159 1090.526586 1054.498671 1017.704985 980.321470 942.520765 904.470171 866.330088 828.252806 790.381578 752.849933 715.781178 679.288068 643.472613 608.426016 574.228714 540.950521 508.650853 477.379027 447.174628 418.067934 390.080374 363.225037 337.507202 312.924891 289.469431 267.126031 245.874344 225.689040 206.540359 188.394645 171.214872 154.961139 139.591144 125.060628 111.323796 98.333700 86.042601 74.402291 63.364389 52.880607 42.902981 33.384075 24.277154 15.536333 7.116692 -1.025633 -8.933382 -16.648132 -24.210280 -31.659048 -39.032511 -46.367643 -53.700383 -61.065721 -68.497795 -76.030004 -83.695134 -91.525489 -99.553032 -107.809520 -116.326654 -125.136206 -134.270150 -143.760773 -153.640781 -163.943368 -174.702280 -185.951841 -197.726957 -210.063085 -222.996168 -236.562534 -250.798744 -265.741386 -281.426800 -297.890707 -315.167722 -333.290703 -352.289890 -372.191771 -393.017607 -414.781533 -437.488190 -461.129920 -485.683857 -511.110274 -537.356791 -564.384155 -592.262497 -621.634216 -653.380392 -671.298720 1353.010393 1346.425480 1330.698768 1307.194299 1281.159827 1253.222392 1223.568305 1192.325736 1159.637874 1125.663117 1090.570414 1054.534699 1017.733075 980.341718 942.533392 904.475481 866.328441 828.244606 790.367262 752.829959 715.756023 679.258215 643.438552 608.388234 574.187695 540.906737 508.604763 477.331075 447.125241 418.017515 390.029306 363.173678 337.455887 312.873927 289.419101 267.076589 245.826022 225.642044 206.494868 188.350817 171.172840 154.921016 139.553020 125.024577 111.289871 98.301940 86.013029 74.374916 63.339209 52.857608 42.882140 33.365360 24.260528 15.521753 7.104109 -1.036268 -8.942122 -16.655031 -24.215391 -31.662424 -39.034201 -46.367694 -53.698838 -61.062618 -68.493168 -76.023880 -83.687535 -91.516431 -99.542522 -107.797562 -116.313243 -125.121332 -134.253797 -143.742922 -153.621408 -163.922447 -174.679783 -185.927741 -197.701226 -210.035700 -222.967109 -236.531789 -250.766308 -265.707268 -281.391025 -297.853321 -315.128802 -333.250362 -352.248291 -372.149139 -392.974234 -414.737766 -437.444331 -461.085838 -485.637677 -511.054028 -537.262134 -564.154429 -591.571453 -619.185971 -645.937581 -664.494507 -672.074228 1354.775873 1352.295019 1343.818980 1327.496359 1305.881105 1280.658865 1253.011596 1223.453991 1192.246185 1159.574219 1125.609804 1090.525865 1054.498451 1017.704917 980.321449 942.520758 904.470169 866.330088 828.252806 790.381578 752.849933 715.781178 679.288068 643.472613 608.426016 574.228714 540.950521 508.650853 477.379027 447.174628 418.067934 390.080374 363.225037 337.507202 312.924891 289.469431 267.126031 245.874344 225.689040 206.540359 188.394645 171.214872 154.961139 139.591144 125.060628 111.323796 98.333700 86.042601 74.402291 63.364389 52.880607 42.902981 33.384075 24.277154 15.536333 7.116692 -1.025633 -8.933382 -16.648132 -24.210280 -31.659048 -39.032511 -46.367643 -53.700383 -61.065721 -68.497795 -76.030004 -83.695134 -91.525489 -99.553032 -107.809520 -116.326654 -125.136206 -134.270150 -143.760773 -153.640781 -163.943368 -174.702280 -185.951841 -197.726957 -210.063085 -222.996168 -236.562534 -250.798744 -265.741386 -281.426800 -297.890706 -315.167721 -333.290700 -352.289880 -372.191738 -393.017498 -414.781181 -437.487054 -461.126248 -485.671988 -511.071923 -537.232892 -563.983754 -590.972834 -617.391784 -641.368968 -660.113230 -669.770725 -672.456922 -671.298720 -687.291017 -713.793756 -735.460004 -752.351949 -763.919930 -768.896377 -765.709626 -752.568240 -727.479853 -688.250951 -632.482025 -557.561188 -460.654845 -338.691496 -188.333227 -5.929122 212.553212 471.615506 776.318292 1132.322201 1545.783451 2022.911507 2576.880174 3211.214285 3750.931361 4406.080442 5029.518499 5764.590729 7443.146722 8988.831507 9632.382533 10377.922276 11327.078482 12362.161536 13871.723527 14222.916075 14164.137674 15029.212934 16479.928666 17933.402896 19015.490033 19920.606391 21043.512524 22328.956186 23518.520754 24447.632805 24979.136972 25722.387645 26851.070116 27702.029244 -672.074228 -678.592592 -694.472599 -716.184842 -736.262486 -752.772531 -764.274041 -769.284186 -766.167304 -753.112871 -728.122816 -689.001938 -633.350242 -558.555790 -461.785293 -339.968123 -189.768159 -7.537771 210.749455 469.583124 773.994087 1129.556447 1542.134165 2016.931345 2554.845561 3150.729467 3781.031746 4463.556058 5178.104443 6051.163446 7211.866391 8369.297451 9308.586552 10266.348271 11362.440121 12402.311335 13290.212166 14001.510888 14622.758338 15377.632360 16559.291578 17846.638863 19014.786410 20084.780102 21130.702860 22287.476950 23433.665131 24512.104898 25486.875048 26341.193006 27116.496497 27496.392537 27459.736000 -672.456922 -674.716302 -682.973150 -698.726054 -717.771066 -736.675845 -752.730447 -764.037422 -768.932860 -765.720954 -752.571757 -727.480946 -688.251294 -632.482143 -557.561262 -460.654994 -338.691963 -188.334768 -5.934208 212.536502 471.560910 776.141176 1131.753216 1543.975940 2017.334587 2552.934654 3147.079579 3795.183621 4493.375702 5247.518559 6110.052727 7094.046542 8108.294149 9111.098023 10144.579183 11224.133180 12276.799775 13246.770284 14114.522878 14867.319662 15715.351588 16793.792212 17965.673559 19099.053035 20182.144731 21247.444148 22335.968331 23390.265557 24395.605400 25335.689742 26134.423275 26746.812092 27170.419403 27370.870229 27432.374800 9209.948817 9549.058239 10062.306034 9512.275967 12455.620013 13647.819911 13885.276531 17805.742906 14815.757498 10027.529824 19314.090576 19593.410856 20921.597884 23065.239640 23175.004648 22174.219228 24132.394682 24324.255787 24835.906331 26041.723816 10357.785813 13378.985457 7218.268817 16029.922311 12207.730998 13099.430777 12434.733423 16082.745955 18118.256904 18844.658081 19349.407830 22155.249432 24000.624864 24646.998935 23946.763976 21428.334521 24427.195709 24999.071155 25569.312394 25607.193826 13520.299536 14392.788704 11281.914419 19118.024820 13339.571930 16927.916231 17949.807491 24662.329427 19398.736445 20302.348636 21424.379638 22196.192456 20927.403176 24154.837197 24808.071819 25516.179192 24627.443536 24136.290812 25786.250690 23988.967773 19374.210689 20626.602178 14249.465406 17647.640824 17846.012323 23364.440492 14803.132777 20456.005909 21547.393220 23365.152810 23338.382434 25937.185559 24367.167331 24603.364411 22444.525601 24110.422757 26387.697971 25358.917924 26558.825301 26417.540771 19984.364351 23342.614015 11797.785261 15987.164126 22912.074580 18530.601055 13752.715282 21204.140771 20373.248631 14226.400953 24035.477720 21074.179921 22150.315802 24052.236709 23493.242503 24154.122055 24002.425481 24637.881565 24921.182319 26430.382804 10333.850827 18093.999778 13469.647034 13542.317659 15060.021831 16366.036117 19300.025096 23842.630132 18018.802303 19373.999195 21863.027377 24343.817233 17557.077662 18971.089001 23660.964763 24141.374017 24370.320605 24206.406691 24008.138458 26244.556557 19697.577714 16533.083458 17963.826238 17418.577941 13576.863456 22182.386309 23143.818957 22427.630542 22195.499808 17536.941150 23230.744584 23707.265842 24114.660317 23880.526942 22454.167889 23525.628666 24342.811208 25629.335247 25740.668769 25861.809843 18952.688670 14469.792708 16913.046678 18052.544641 17719.344442 15860.290939 14810.216781 19560.638908 20944.412682 17949.283943 24630.121151 20957.519826 23434.382607 24397.477056 23792.561384 25336.652283 23316.019232 24441.553492 25835.335440 26235.622125 14501.252654 13134.827933 16616.523405 11068.403212 18257.886112 15047.059033 18210.054442 15267.658113 15706.001586 17568.212317 16212.426910 19450.229141 20202.194455 22727.384830 23130.223684 21027.134636 24800.638794 21092.920344 26647.919548 26956.764627 12605.688919 16817.146992 20890.181913 14392.575116 15842.283583 19655.435900 15278.819931 15246.349771 16129.742462 24064.138908 21047.469216 20003.763339 21567.463607 21047.411458 21046.763256 22267.699905 24876.379079 25810.287813 22214.273835 27195.886844 18241.015373 21042.956116 14560.566479 16614.488178 20967.089040 21495.313405 16876.669126 17690.682451 19430.788022 19518.986024 18563.273429 24220.272569 19769.513583 26577.463436 23111.173266 25085.992124 22348.284324 25473.713080 27131.889207 26801.084609 9750.296672 11054.309589 14293.015457 19231.357468 14421.920111 16837.029285 15838.945445 13258.858811 17178.978850 24300.830015 20913.723275 18897.787917 22524.760389 19418.173524 19361.934362 23414.832131 24618.455692 22655.724991 24426.327905 26181.504252 12839.137272 11677.042322 12792.499827 15410.109523 15643.055156 12960.880577 15886.935186 19630.155946 18144.860961 16906.587610 13910.150125 21247.613014 17160.841959 22747.521526 21763.325697 21801.946511 24193.308683 24348.859883 26172.179458 26168.463011 8375.392635 10423.836843 16311.749211 11154.901661 15446.707885 17844.820582 15083.911212 17534.855618 14397.666293 19863.468598 18520.304179 20893.803968 25203.401863 21422.280915 24021.144033 22377.760010 23272.216512 23312.203537 24022.193138 26515.287764 10668.554878 9181.035995 10952.562837 12807.622665 13853.855053 19459.375670 14301.359810 19813.583255 19436.805321 15129.112508 22560.523517 18453.830005 24163.232543 23963.416348 23557.849564 18933.286951 20342.990828 26351.585526 23838.287832 26100.026972 10659.316432 8141.644307 8296.643030 10038.128085 15802.349378 21175.900443 14413.490255 12027.846325 20084.922494 13118.103959 18595.075242 16887.559379 23865.465821 22463.636996 25090.377370 24334.079761 20486.986697 26420.781308 24262.186781 25917.017703 11385.650694 10622.741330 8677.489025 10210.936264 14131.147431 12352.236915 15449.076355 18672.468976 18351.299709 15811.751404 13647.497245 22904.961369 21430.468454 23803.526290 20250.109302 24094.784827 20873.231818 24381.005005 26654.940358 26487.305423 8195.245428 8361.874118 8421.108071 9203.058092 10694.566244 11541.008191 13788.605809 12328.607787 15128.900541 14975.211734 22528.803474 17076.799266 17688.198086 17155.412528 22682.868288 21584.519774 23203.686873 24748.732964 25726.009277 26789.901531 8420.924054 8846.308289 8613.541090 10675.353449 9668.024537 10442.838338 12656.938749 12227.332752 20392.341642 22753.550536 21287.354718 20740.588878 26029.001166 22312.573098 24105.858371 24831.165185 27152.778084 25497.449363 22788.669699 25105.299882 8329.764170 7357.066158 8337.070281 10301.118518 11165.767269 10734.408010 9553.118795 16999.025997 14754.612375 16301.635033 20656.189788 19777.690159 25966.696162 24989.721391 25472.293004 24099.201995 26576.432166 26182.227981 26817.861734 24148.199419 6630.651497 7903.746852 9420.809379 9218.648167 10276.112004 12245.663491 12527.971178 15259.741650 16135.316365 18996.363439 19079.466132 18099.335118 19441.080677 25405.286315 19910.975628 21536.092570 24264.880851 24850.048965 25015.028357 26304.789569 425.270391 8762.694727 8342.056141 9896.853840 12699.054917 11358.324049 13840.148239 15202.404638 14258.266154 14137.213715 21511.847116 23801.251093 22545.358753 24172.987621 25433.770147 19582.300025 23163.940669 22735.000738 26906.640015 26720.833493 11043.602876 8993.080953 11578.332139 9479.558845 11699.593886 10213.769405 13741.560605 13749.938248 17494.166150 18824.545846 18001.774697 23835.656774 20292.899997 23900.645352 18142.201974 24926.110441 26250.149461 26321.019848 25077.829481 27306.533820 7439.482833 8718.196734 8944.694335 9654.598315 11779.722262 9943.960116 17303.090416 14170.975233 11559.747385 19414.188251 22556.930863 22578.356229 23183.160430 24486.380818 25141.219765 26056.202921 25075.322695 26389.039101 25536.244636 25130.846765 9997.234056 12001.187713 8705.409942 9250.967733 16024.460155 10197.516437 11311.177572 15625.614935 12414.548011 15613.644708 15254.060818 21142.763023 17304.160676 17046.664180 23695.125381 23673.644754 24533.245152 24864.186531 25255.578009 25200.558554 11347.453883 8431.397891 10781.844779 8251.564405 13062.852529 10630.407675 10856.340494 12067.265454 13577.240399 16756.370735 15085.085267 17072.998629 21797.427884 22211.775564 17216.086902 23144.626229 23951.084623 24550.861317 25130.408735 24821.737397 7919.508343 7913.581572 9521.507156 9987.052322 13763.786638 13044.621463 11627.177888 12429.121688 13815.798203 20475.681607 14528.339779 18645.068864 15153.434364 22254.924730 22652.220772 24159.126407 24461.816457 25224.094867 25255.943040 7869.064247 8369.254014 8982.694752 8437.177258 11093.248464 12504.733113 10010.368803 13575.025540 18523.445498 15093.235374 19477.250347 20617.709576 23211.742894 17196.580166 21981.524958 24076.552334 24187.481009 23701.005656 24993.872656 8400.344723 8469.808195 11391.762016 8463.270497 12327.081453 13324.612566 9324.992546 12344.827943 15666.308922 16080.191513 20579.772810 14050.816149 21149.997429 15654.834257 24217.061876 23734.347280 24746.525130 23869.599489 24852.961386 7108.618391 8557.322134 9396.516538 8609.625256 10496.562558 12089.350682 13216.921983 14180.592419 14743.220299 16815.279078 15343.123175 19012.859399 20054.791413 20300.810033 21736.583112 21695.354638 22595.562038 23786.618717 24727.608292 8495.360007 8415.399597 10370.892909 10278.393042 8398.570067 8220.657265 12710.356878 13665.010354 11069.019129 13530.578057 18408.779832 14221.419822 16818.695661 18601.124985 16550.031486 23118.353166 23293.974958 24135.141213 7981.553192 8342.704079 8774.595440 9150.000534 10048.634966 10699.691063 11629.724683 11423.672358 14745.145034 16924.718758 14375.922938 20073.955586 18679.485508 22250.297733 23312.666151 21563.760977 22630.186080 23388.219392 7682.032201 8265.314032 9133.653413 10933.931773 9551.411916 11759.953680 9787.029852 13433.594652 14154.603372 13001.930248 15887.295948 20068.838450 17944.641659 22690.188392 19887.931747 22589.139668 25106.484155 7842.737466 7498.942621 8571.207518 9819.370350 10497.003471 10545.319069 17735.358253 10455.810856 9989.806925 15844.404009 17219.295603 19813.233705 23711.904909 21703.212409 21322.999727 23554.023673 22504.159361 9261.211237 9030.465807 9540.416866 8808.254827 16249.133328 19724.766566 13804.548534 12383.840896 12074.417110 20373.850413 14940.815304 19867.291009 21880.978847 23316.617979 18606.957712 21260.305885 23191.435508 23211.988685 7105.157134 10104.882800 16934.559925 9249.374671 8993.927130 8664.466763 12615.729502 15503.496212 17956.790415 20824.311338 21966.005877 21582.277994 20860.991937 20768.069510 22542.504264 21622.376976 9292.926415 8620.065841 10756.567317 10910.624888 9017.411642 13453.444987 14024.452212 16373.928143 13083.825483 12049.462275 19743.758041 20619.683216 21182.254277 20785.494708 16621.172640 21541.719997 8351.353425 8204.965337 8679.707671 10689.802961 18014.228303 15257.199344 15337.704750 16233.012749 12468.015201 11742.669876 18080.886857 20575.444605 20657.973737 23081.792241 22612.961902 20931.620635 8014.667873 8426.514142 8652.996356 11342.616997 10036.778452 9300.636354 16612.675777 9639.715919 11968.870080 16339.921593 16480.430045 20595.323113 19609.281601 19442.987781 20181.124821 8032.042849 8271.017547 9987.510906 9400.073879 11492.988731 9248.372009 10631.803692 11669.528752 17750.162684 18721.889449 19301.540303 19639.207391 19479.260399 15368.449954 19917.419949 6909.401905 9078.555019 7823.375280 7965.681639 10733.341228 11845.948829 9241.885939 14430.497391 16910.595960 11910.483373 20869.931899 12372.420371 22243.287930 16698.341821 19656.232245 8945.022258 8449.020851 7796.850705 8472.345073 10552.423515 9848.424013 11070.809848 12829.288259 12376.419186 10215.539681 18502.837815 21248.370425 22089.389773 19146.807293 7890.405894 7998.294640 9870.021186 13523.670141 14279.863520 10326.500759 9914.758394 12165.020834 13610.349247 18450.250093 17337.479825 15751.657494 19843.323683 18920.426719 7988.096014 8191.876922 9845.955798 9881.936875 12990.693216 9032.505737 16077.212103 15423.780865 10079.948514 10644.954990 17931.061319 20757.946965 15987.132443 18154.475171 8046.158915 13031.662802 8609.420989 12196.446672 15913.050252 12994.232489 18837.008001 15571.873855 18652.087235 15712.273785 16948.200294 17983.487746 17343.881535 10770.223856 8165.861311 8646.519797 13873.568105 7988.225780 15021.214259 9463.655375 14840.385175 16578.348611 16800.598610 17731.179395 19321.997479 17144.940082 7870.637798 9034.349296 16357.937607 12542.904303 12478.822266 12016.885388 14745.217323 9292.943055 16857.921683 13959.788791 14808.302191 16965.269215 17232.215185 8757.092681 8470.402902 8310.380221 10669.636508 8626.694808 13215.445480 11164.455359 16886.930331 16232.221975 15692.309588 15467.925212 14583.327872 8146.496928 5066.217815 8322.683394 8196.713113 8809.455257 9345.291007 11882.852821 16098.965201 16042.097334 18518.415938 16802.963009 16097.175024 8217.571675 7899.353167 8602.036424 13779.789115 8557.828602 12903.251648 16414.014662 11552.009628 18394.436333 17441.428966 14965.414984 16071.424984 16071.907714 4210.276093 11805.817097 14727.406130 12200.344308 10482.929686 10550.355487 9713.550870 18539.662698 15301.564017 12861.278300 17068.446167 10359.596072 8128.602606 7880.687025 12306.156399 15647.731622 11490.662194 10659.881858 8752.088867 19955.098911 11720.470144 15215.464801 7682.371948 9747.440299 8755.865612 9032.007410 7945.623054 14804.568997 14773.460847 16772.839617 14512.412457 15747.340433 14740.126504 7499.456754 11931.631953 7842.187749 9375.244932 10970.734800 9614.763543 10444.500254 15069.948814 11839.163437 14566.828394 9548.614818 10405.936452 7364.781736 12214.621515 13209.158324 11755.959419 14454.291281 16153.926375 18622.241085 14132.415288 1468.408079 5920.696922 4696.811917 10072.621361 11579.443118 12640.376445 12822.504979 16383.807085 18020.020670 14631.414992 4839.691626 9335.124594 13697.340719 8887.891290 13282.865944 10010.752907 12682.991395 13896.436735 14085.941957 9589.155036 6200.487036 9759.708914 9023.785026 8627.017468 15227.291854 11146.241809 9654.682170 14009.953796 9227.740273 8100.500798 11860.529071 12576.907901 14448.773188 12322.833410 15754.124411 15588.467727 13163.801131 7564.610027 9112.272583 7261.585688 9278.054707 9905.137248 9604.454479 14710.773716 17546.708513 6490.276845 7919.115321 5272.284870 8631.816943 13047.349293 12690.121050 10707.170596 9990.007987 3844.600838 10275.290332 9845.845350 9253.408464 8720.155592 8938.389623 13455.105575 11483.627649 7854.258687 6549.872763 8888.602676 9853.173658 11947.822789 13638.525398 8550.555539 7899.324848 10878.939588 6991.985926 8675.293756 11420.559587 9414.736883 10988.392014 8542.219658 6377.186464 12027.213892 4636.564549 12322.722464 11330.351399 10887.002233 10847.354130 6935.895120 8435.423078 12868.335140 10217.343579 10577.777529 12795.236464 1450.583017 10560.578487 9321.432268 11707.186326 9383.114538 14383.909758 6803.636560 10409.020584 7084.943649 11701.464560 8550.960436 10444.230989 1811.490045 9731.487556 9515.055995 11630.003354 10507.883775 7776.608047 10420.730560 10845.031259 9523.798869 11866.798700 5578.736615 6984.783437 6302.687822 2358.274946 10144.568050 6806.019583 8216.434780 9917.386442 8471.813480 8117.844082 2100.466777 7554.156000 9791.402236 2082.608483 7176.645128 5905.403727 9317.142180 8364.522314 9104.558929 9645.182081 9196.850712 9011.245925 5900.533767 9170.475144 7586.272433 7774.483114 9439.010596 7165.969211 10284.603830 4282.851723 8958.266528 8650.703920 7751.637146 9784.916623 8384.753745 8538.141156 5503.938257 9740.188142 9542.193382 8951.019296 9885.311589 9471.526331 9281.826009 10242.623170 9482.922931 10386.769019 3637.504373 10807.650713 5047.041096 5430.896481 12037.851026 9183.020691 12222.402324 9106.870604 9919.445372 11171.365668 9799.468779 12490.954762 12013.291653 9947.608166 15941.570263 13017.923557 10448.090338 10747.603756 11778.034204 11057.609961 10848.395195 7143.386197 9963.380159 11390.514125 16570.393696 11292.227529 17511.422831 16194.503361 11475.096731 10281.709191 10631.168036 9379.736557 12071.835987 12050.290960 10265.242845 9411.747974 9579.321285 9456.032311 9639.336142 10938.134545 15206.173471 9625.536863 9554.634313 16712.183489 15823.272767 14466.886131 10519.304571 8989.656885 13074.778476 14104.750402 8881.917184 9915.982518 11170.488877 10222.704838 11151.707941 12272.332245 12434.095012 15843.884224 13758.697808 11135.370992 11446.026351 9513.001223 14348.074930 12968.408189 21096.838688 9374.276604 10557.982578 9057.617902 11104.444333 9532.228079 9393.587279 12996.532409 10924.963285 13993.328869 11996.226692 12323.676189 11514.869897 15542.894724 14357.738282 10821.506269 9348.810100 9315.581412 10550.880110 9313.504853 9662.240342 10094.664739 9923.822742 14004.935202 11004.479083 13827.668439 13563.428866 12885.842937 13306.183382 14126.108212 16878.583171 7593.630733 9589.541651 10112.463479 13084.926687 10845.905446 11039.111598 12690.822876 11570.386510 15789.305757 12158.318401 10437.021894 11027.276842 12328.329142 12335.913752 19749.119086 9296.870417 9705.831415 9641.682921 10305.197169 9976.101522 11040.994428 14651.843660 10159.022616 11641.214129 16993.324931 11871.642506 12733.936672 12358.835346 12341.522478 13928.188928 9419.608912 9988.882290 9660.630565 9871.621623 11495.999454 13379.854415 12002.063701 11814.265023 9852.855016 10785.090095 13481.079257 15831.991392 15068.348662 18020.020904 16837.676236 9322.749908 9583.626551 9480.701477 9566.432419 9757.123843 9704.877838 9846.484482 11355.350340 13908.318354 13906.360987 11680.675161 10198.018220 12348.041389 11013.751958 16917.181719 9163.829896 9332.674547 10337.554036 9675.576202 9792.558216 12132.508908 10982.217791 15585.147007 9842.170307 9561.074319 10003.718394 12536.066353 12472.305941 9797.775293 12925.526637 9932.797538 9742.342639 9879.816036 10262.338110 9735.750141 9302.470603 10045.950303 11723.525374 9423.943719 9208.458378 9656.075461 11977.752003 9721.504036 9086.482505 10932.824047 10047.518591 10109.134603 8886.085305 8948.881833 9094.138565 10242.819352 9353.948448 7852.739673 8417.584036 5741.859379 9379.714203 9343.746600 8310.881909 9234.021108 9934.698059
</DataArray>
<DataArray type="Float64" Name="Velocity" NumberOfComponents="3" format="ascii">