<VTKFile type="PolyData">
<PolyData>
<Piece NumberOfPoints="2186" NumberOfVerts="2186" NumberOfLines="0" NumberOfStrips="0" NumberOfPolys="0">
<PointData>
<DataArray type="Float64" Name="Pressure" format="ascii">
 30042.151725 30427.469403 30874.080558 30697.464276 30648.170175 31313.123388 31935.227971 31827.082915 31782.835675 31835.423285 31717.991026 31219.201252 31303.954902 31724.188639 31671.130715 31385.096910 31279.706425 31087.022676 30864.809950 31010.999699 31088.546784 31123.158492 30863.203746 31078.238960 31364.532385 31279.491934 30130.178951 30165.661555 30333.625359 30636.551355 30765.804259 30811.301343 31162.066922 31714.893566 32016.384642 32059.431640 32169.594424 32079.709998 31547.123446 31229.011203 31502.743300 31798.213312 31704.891392 31375.513006 31180.154671 30987.982869 30757.346977 30707.916209 30760.814449 30747.735048 30671.981628 30723.362869 30707.733462 30623.128216 30094.111800 30146.657694 30248.329818 30379.725462 30560.004210 30757.345210 30914.743054 31159.366722 31515.773031 31831.350881 31989.577456 32008.543126 31824.068075 31531.076715 31431.713733 31539.129028 31577.608679 31415.739557 31167.724406 30955.420396 30772.189109 30631.451413 30611.789105 30618.390169 30584.537278 30571.127469 30507.474758 30338.407264 30211.580182 31279.491934 31477.316297 31144.926307 30362.020401 29342.475810 28538.202071 27674.848329 26364.382578 25524.486549 25350.142786 25624.754007 25732.705969 25281.793137 24416.298342 23481.528913 22690.145265 22303.914947 22013.191546 21195.371643 20326.141035 20115.668140 20275.745044 20085.459720 19307.169479 18667.752811 18473.921028 17886.433134 17338.046314 16474.560745 15682.376895 14798.444681 14277.702950 14433.263799 14714.693096 14203.931162 13161.809236 12539.770512 11187.839938 10369.105827 9806.509815 9336.037024 8367.827857 7536.425211 7675.960262 7776.351639 6841.918037 6057.359069 6468.592358 6270.856347 5837.170554 6171.938370 6946.849926 7662.930171 7568.871863 7339.894056 6535.903000 5816.977901 5969.536276 6771.770565 7239.153573 6903.372925 6816.123520 7157.037234 7615.409244 8878.108511 9645.788407 9628.752416 8736.561345 6800.983460 6300.762522 8234.308566 9926.848091 10639.071196 11914.810062 12804.131345 12771.442894 12640.486712 12228.833523 12272.148082 11695.881762 11263.413691 30623.128216 30795.150067 30696.339078 30034.992859 29193.769590 28460.748702 27758.434427 26945.400884 26134.893665 25756.294103 25725.551070 25568.417048 25101.608653 24477.035564 23799.213976 23159.272709 22717.740327 22251.308405 21627.696474 20929.185734 20594.853336 20718.318132 20413.900416 19487.151274 18756.493757 18204.686792 17531.971611 16691.660702 16040.261130 15681.648854 14972.364270 14244.312457 13833.089374 13543.852302 13263.017249 12946.659958 12652.472513 12345.464053 11711.028446 10911.972257 10035.400579 9095.268766 8492.617154 8347.557894 8275.901873 7776.020706 7489.822331 7594.928529 7365.190318 6876.144197 7073.114939 7753.392060 8089.574427 7967.236336 7589.572206 7074.122360 6844.170925 7037.679962 7399.979127 7493.423501 7276.126706 7088.267429 7126.871003 7502.642429 8078.973080 8254.009539 7847.674898 7280.580046 7169.180213 7907.664056 8971.012580 9907.281671 10789.948155 11578.045770 12096.337231 12110.188649 12063.028441 12147.131934 11951.249521 11629.919617 11553.297664 30211.580182 30230.250150 30192.213764 29844.567447 29255.949665 28569.674553 27868.516938 27197.974502 26593.371859 26168.747019 25898.975590 25542.830857 24990.982509 24348.190245 23704.070934 23165.356654 22731.466068 22302.118581 21848.758349 21350.186754 20887.472886 20560.321604 20123.624123 19437.008963 18716.593989 18038.817787 17347.120605 16658.408230 16048.600546 15580.819125 15112.587135 14560.188940 14010.510880 13510.522814 13106.345715 12840.101691 12683.281920 12552.028695 12220.593021 11645.684158 10933.806939 10182.877952 9540.411485 9119.519473 8912.990632 8715.094995 8458.351154 8222.747537 7969.763930 7657.370202 7496.617726 7611.355067 7813.157625 7931.983825 7906.248515 7708.055082 7471.711965 7385.148623 7465.862315 7556.504052 7511.223112 7354.211079 7224.935292 7256.699717 7436.565658 7587.670430 7572.455690 7481.323157 7538.197353 7888.215214 8511.835746 9278.356819 10050.730519 10746.634296 11304.601910 11648.865184 11811.844642 11896.237066 11906.522564 11841.741150 11780.746769 11766.244787 11263.413691 10913.464130 10170.767205 9415.878940 8649.082041 7892.255703 7100.296721 6486.070540 6020.365877 5703.254294 5516.647387 5323.148538 5104.077931 4854.630011 4579.520688 4283.032766 3969.935494 3645.374205 3314.511132 2982.200410 2652.712404 2329.361086 2013.549739 1700.355838 1382.270546 1208.394579 11553.297664 11259.473406 10868.018687 10279.713548 9541.203989 8758.853290 8028.554166 7341.908222 6728.313161 6237.756975 5872.584983 5624.220867 5420.943654 5213.724628 4983.519629 4729.450492 4453.837776 4160.317454 3853.273231 3537.368027 3217.193802 2897.031668 2580.710437 2271.553308 1972.491541 1686.961512 1425.959952 1252.758204 1177.968135 11766.244787 11610.360536 11305.662143 10861.296377 10271.355554 9545.979167 8775.361199 8046.594801 7373.940941 6776.017071 6287.966209 5920.231989 5650.965865 5430.920371 5214.222452 4980.418700 4724.665289 4447.853092 4153.270448 3845.234765 3528.419080 3207.452949 2886.694061 2570.171354 2261.814132 1966.353711 1691.961711 1454.764072 1277.874147 1187.810402 1160.351894 1208.394579 1091.750584 906.831040 759.697518 637.419330 532.706264 442.697301 365.617408 300.027084 244.613700 198.145121 159.467632 127.513526 101.308173 79.973985 62.730987 48.894459 37.870296 29.148723 22.296964 16.951365 12.809369 9.621658 7.184704 5.333866 3.937142 2.889616 2.108602 1.529474 1.102119 0.787972 0.557567 0.388536 0.263988 0.171218 0.100684 0.045198 -0.000694 -0.041203 -0.079668 -0.118848 -0.161144 -0.208777 -0.263925 -0.328839 -0.405941 -0.497908 -0.607748 -0.738878 -0.895196 -1.081152 -1.301827 -1.563009 -1.871271 -2.234055 -2.659754 -3.157795 -3.738723 -4.414285 -5.197501 -6.102738 -7.145773 -8.343838 -9.715659 -11.281469 -13.063007 -15.083483 -17.367520 -19.941064 -22.831256 -26.066275 -29.675133 -33.687444 -38.133156 -43.042251 -48.444424 -54.368758 -60.843387 -67.895188 -75.549509 -83.829958 -92.758281 -102.354348 -112.636288 -123.620782 -135.323529 -147.759912 -160.945836 -174.898718 -189.638601 -205.189304 -221.579566 -238.844178 -257.025406 -276.176009 -296.368538 -317.727228 -340.534532 -365.709556 -394.756102 -412.048838 1177.968135 1138.463159 1032.684770 888.146937 754.011159 635.252257 531.626658 441.986192 365.058880 299.554444 244.204815 197.790871 159.162477 127.252778 101.087308 79.788545 62.576640 48.767088 37.766067 29.064133 22.228869 16.896986 12.766285 9.587789 7.158284 5.313413 3.921428 2.877632 2.099533 1.522662 1.097042 0.784220 0.554820 0.386547 0.262568 0.170227 0.100014 0.044772 -0.000932 -0.041291 -0.079632 -0.118704 -0.160900 -0.208435 -0.263481 -0.328285 -0.405266 -0.497096 -0.606781 -0.737734 -0.893849 -1.079574 -1.299986 -1.560869 -1.868792 -2.231194 -2.656463 -3.154023 -3.734417 -4.409385 -5.191946 -6.096464 -7.138712 -8.335922 -9.706819 -11.271636 -13.052114 -15.071464 -17.354314 -19.926617 -22.815520 -26.049210 -29.656711 -33.667649 -38.111986 -43.019718 -48.420556 -54.343597 -60.816990 -67.867624 -75.520858 -83.800305 -92.727711 -102.322942 -112.604113 -123.587882 -135.289919 -147.725569 -160.910687 -174.862636 -189.601388 -205.150653 -221.538945 -238.800421 -256.975365 -276.110087 -296.255944 -317.466224 -339.783283 -363.126211 -386.688502 -403.355094 -409.870737 1160.351894 1149.150557 1099.340614 998.567868 875.429898 750.213797 634.508373 531.814667 442.424051 365.533651 300.001405 244.605826 198.142706 159.466892 127.513298 101.308103 79.973964 62.730980 48.894457 37.870296 29.148723 22.296964 16.951365 12.809369 9.621658 7.184704 5.333866 3.937142 2.889616 2.108602 1.529474 1.102119 0.787972 0.557567 0.388536 0.263988 0.171218 0.100684 0.045198 -0.000694 -0.041203 -0.079668 -0.118848 -0.161144 -0.208777 -0.263925 -0.328839 -0.405941 -0.497908 -0.607748 -0.738878 -0.895196 -1.081152 -1.301827 -1.563009 -1.871271 -2.234055 -2.659754 -3.157795 -3.738723 -4.414285 -5.197501 -6.102738 -7.145773 -8.343838 -9.715659 -11.281469 -13.063007 -15.083483 -17.367520 -19.941064 -22.831256 -26.066275 -29.675133 -33.687444 -38.133156 -43.042251 -48.444424 -54.368758 -60.843387 -67.895188 -75.549509 -83.829958 -92.758281 -102.354348 -112.636288 -123.620781 -135.323528 -147.759909 -160.945826 -174.898686 -189.638495 -205.188959 -221.578442 -238.840518 -257.013492 -276.137224 -296.242306 -317.316276 -339.200520 -361.299785 -381.922513 -398.293554 -406.541232 -408.655401 -412.048838 -433.652352 -472.762430 -510.098245 -546.603991 -582.871789 -618.425540 -651.815076 -680.326064 -701.140683 -717.064005 -747.093666 -817.680083 -814.988611 -893.824155 -1296.654388 -1123.224940 -1040.817865 -875.412873 -832.108925 -940.122736 -897.301733 -350.815690 -47.053920 506.655853 523.569522 932.986489 1363.764566 1401.930937 1731.918958 2255.419813 3252.519934 4591.004331 6507.754825 8914.444631 11243.031928 12861.794391 14180.034391 15571.166949 17266.385195 19192.083159 21379.188374 23238.193244 24547.141239 25767.640233 26821.149660 27928.400142 28657.460803 29275.053365 29837.826446 30042.151725 -409.870737 -419.324111 -442.188265 -475.555557 -510.844935 -546.827308 -582.964683 -618.541049 -652.060676 -680.722317 -701.220160 -714.730671 -737.000312 -798.860922 -874.151948 -863.837180 -913.888435 -1006.432299 -957.710042 -849.129168 -815.102118 -827.062905 -828.983102 -483.105563 91.293882 485.161204 858.983888 1313.464043 1509.121082 1674.461323 2074.908414 2789.061581 3797.861542 5006.137370 6599.203774 8704.483789 10830.834116 12487.957188 13924.143050 15403.251044 17008.435396 18776.387141 20709.403105 22624.838015 24138.908503 25427.129430 26601.361826 27585.517445 28373.361457 29066.296048 29648.149261 30002.098002 30130.178951 -408.655401 -412.100663 -424.167557 -447.482449 -477.658469 -511.573815 -547.060737 -583.019252 -618.494524 -651.885665 -680.328283 -700.432771 -712.837540 -730.957191 -782.472636 -876.996670 -958.568244 -983.093323 -977.166241 -918.167108 -864.112046 -803.220377 -738.461807 -669.004939 -447.537222 30.045197 580.723740 1077.637550 1391.375334 1559.855531 1820.629279 2327.656654 3120.481089 4172.085962 5451.895666 7007.920919 8831.705600 10672.804584 12300.346615 13771.683812 15226.297529 16752.525824 18424.283356 20217.106693 22004.230992 23650.976232 25138.693743 26500.757253 27647.310521 28562.193937 29268.232526 29758.424222 30026.774292 30096.808676 30094.111800 2167.286743 2698.054293 9808.397643 3884.030548 13997.130844 11357.369516 12778.334517 21442.622286 15426.195175 8401.247569 20797.609586 22911.364610 23852.845226 25681.735407 26270.314870 24623.203524 27667.649976 28325.649748 29680.546523 30500.397405 9121.089893 16610.046329 4341.433376 18507.961474 12023.979292 13207.527202 11659.326349 17834.577816 17818.960250 20561.109533 22891.468348 26805.378139 27280.044110 27286.464465 26704.432180 25470.654815 29231.116728 30259.581881 30026.603907 30913.680661 15904.753155 13284.362616 9722.711314 19115.715544 11915.227955 20494.724419 17869.335551 29030.441052 24028.561909 22529.303877 24695.576897 23938.141051 25011.345894 28008.398536 29615.779196 29397.818071 28633.869902 28691.971930 30924.448254 30470.062274 20680.167735 24496.250215 14556.480753 21572.157425 18741.247214 25825.127602 18022.584310 22077.722384 24274.135057 27627.580972 25512.256102 29384.001772 28658.575635 28926.968490 27452.014976 30195.136170 30255.814721 30212.619004 31322.912907 30158.997026 20223.171085 26921.976019 15253.783437 17199.666956 25677.385156 21161.272573 20949.243127 22844.849914 23929.912561 19569.768357 29201.882079 26058.724413 25862.319566 29070.960023 27959.024229 28905.457146 27939.479752 30387.146644 29980.309250 30847.673291 10996.759187 22077.800786 13165.567607 15116.374055 14167.163071 18867.475553 21844.834917 29269.992488 23966.629072 24475.171303 24013.334640 29890.339757 23197.099617 24340.562476 29292.067215 29216.009548 29038.998254 29908.395955 29739.857755 31524.804047 24384.807420 16957.432734 22125.775547 18136.997238 15520.983989 22642.026878 26166.614866 25992.251669 25478.250283 22159.680887 27331.441430 26874.542744 27800.028877 29172.633644 25692.507522 27779.882737 29366.383978 30447.845237 31375.789996 31231.400835 20753.813119 21171.635323 15620.425635 20721.206491 20691.596462 22961.498994 16534.635647 18350.591866 23745.510692 23436.288126 29987.878593 26990.186642 28126.889772 28793.579935 27953.188985 29842.080899 28672.487601 30196.772266 30484.808075 31361.779836 17891.977635 11804.780633 18028.543129 11966.120939 21495.373155 16579.537400 22748.842573 18124.783311 19879.453284 24351.912057 20026.660906 25472.711597 22577.659769 25529.068785 27510.309003 25915.826716 28759.805678 26151.086049 31116.507954 31231.897783 12503.285960 19384.424534 26118.893953 7532.453284 17806.945354 23709.033685 19082.165640 19398.909846 19872.197525 27616.227556 26145.689436 24121.578022 26454.479327 24446.568337 23032.414168 27843.571363 30517.128597 30462.567783 28111.944283 31182.772901 18156.448826 22925.007502 16846.083112 16415.001378 23978.058802 24798.737446 18957.107966 24443.233432 23065.993680 22198.174955 24192.274817 28459.625976 24614.464150 29262.040250 25138.856684 30247.264508 26921.624466 30738.210816 31162.129168 30710.522665 8671.475973 7303.850408 12198.984062 17043.253856 15079.023307 17198.267883 13048.723397 14476.421078 22457.081478 27144.791512 26447.163159 25658.716827 29761.861629 24245.714592 26265.509419 30240.976657 30170.691370 28609.926298 29400.283454 31083.137496 11140.051024 11489.257613 14326.145079 16139.749075 20999.851794 17100.340667 13706.993204 23240.939325 25485.678184 18770.592912 19722.900368 26736.422141 22155.812024 27462.126865 27911.811522 26523.397598 29233.967773 30448.618538 31508.037134 31337.822149 5645.341897 8357.153922 17651.773235 9489.493021 15142.721026 20604.027228 15753.940530 20772.700730 20096.467021 25990.159823 20981.022214 27849.034556 30201.220289 28384.033303 29632.273587 27453.766059 30831.200020 30068.537072 30255.937309 31112.606887 10279.199713 4673.681251 10957.192393 11644.796599 16179.641230 20779.479710 19069.731007 25517.860346 21208.731715 22584.747186 25707.874388 23089.828313 28690.590754 28560.890062 28291.438056 26643.327058 26977.333305 31009.311939 29412.112651 31097.365847 9820.176679 6400.186089 4185.677561 7457.353456 18081.634671 22285.386782 15218.767743 13261.669666 22814.959954 19975.079726 23323.579267 24538.557106 30699.043164 28973.961680 29305.247834 28660.091485 24232.778783 31196.770787 28420.522041 30892.614700 4791.958230 6848.164861 4531.024352 8587.539518 11122.834057 9552.365833 21463.897491 23912.674058 20243.846462 22036.755299 17568.532946 25066.004517 27105.318423 28549.998293 19651.235999 27422.066331 28166.439479 29535.663274 31157.154657 31150.836394 4491.879084 5802.534080 4886.488632 3566.068257 11115.041813 12719.783826 12208.539653 16001.764930 17952.832168 18212.278385 27986.596297 26726.506993 25939.508145 24535.131767 27612.242438 27190.722136 28594.076396 30846.085624 30361.295469 31043.962348 4926.474250 5200.128605 5002.132502 10343.509266 6411.556644 9809.401707 10230.672357 13541.270426 22319.958661 26337.211019 27813.009272 23904.707956 29752.921867 28613.852126 29923.277316 30536.822660 31371.225601 29620.386216 29676.996210 30023.640650 4579.989231 5300.900708 4192.899786 6100.133694 8241.854260 6855.686572 8929.323407 19619.791494 19956.346778 16560.300836 23720.739051 21291.448110 28042.147910 28812.381754 29586.394751 30955.415051 29931.565310 31572.419499 31248.632172 30953.929277 9897.660287 4554.899931 5702.409645 5542.024742 7265.881358 9618.430360 12674.514817 13490.664277 12635.701315 21442.787154 25679.522952 22288.527952 27738.866489 29003.953379 28409.917257 29072.217837 27647.068906 30043.006713 29560.565344 31426.360575 7386.367228 13097.279067 5534.960795 5546.170620 8228.714622 9626.896895 12992.646787 15367.741824 15017.216421 16793.449184 24533.979304 24315.181361 27194.747306 26944.090458 28347.117753 25785.024688 26715.573327 29285.951000 31116.434522 31164.418236 6600.734112 6332.863177 8765.147131 5921.820850 8370.996898 7328.960392 9521.194588 8655.584288 18941.418949 20451.310074 18899.120145 26123.980018 24049.411357 26738.066181 22129.812895 30233.493020 31196.645687 31614.111863 30903.165908 31300.732007 3547.674836 5210.765242 5025.623604 6510.334079 7848.356389 7187.765555 14148.472175 11126.729056 9668.690218 23835.699840 21863.991092 26450.253947 27958.591065 26318.977109 28681.629656 29862.923008 30708.715494 31446.451063 30663.728354 31440.876990 7490.500774 7996.716848 5409.006197 5758.840224 11987.553453 11407.681204 10595.348858 15970.188570 13668.330716 17274.809605 18203.145580 23316.928930 18694.422244 21883.672736 27295.390750 24303.457633 30941.904713 29649.918312 28978.134266 31037.714184 6966.648953 5371.315725 6711.659795 5049.408548 13906.848924 10295.930213 11885.316440 11439.280191 14733.527691 17575.114253 16726.307903 18556.816789 25803.359499 24466.081877 19464.754203 25878.695131 25733.713063 28497.923002 29194.763809 31472.300765 3331.233637 4989.935652 7570.006022 5636.855741 13250.446947 10923.666872 8790.384822 16519.699686 14988.476624 17245.470224 16177.933976 20437.179849 16706.164847 23969.307071 26780.717166 27428.048047 26650.995160 31366.206266 30942.038093 5924.620431 5882.513497 7527.014633 4583.386441 7041.855445 9673.613834 9218.484365 14442.591277 15501.294584 18512.777002 19948.059067 24321.650597 22025.979327 21743.148577 26241.484399 28769.685278 27864.895365 28420.813597 29812.145738 5746.876543 6324.569320 8470.654739 6176.644756 10395.608852 8898.384724 9925.784212 9720.237645 13150.903800 16279.694317 19720.391919 14847.491360 22875.583401 21593.242488 24715.817305 26262.490266 27837.282164 26695.379991 28889.383833 5534.037237 7962.443866 6210.714385 6514.404951 8403.343366 12960.483397 13726.268082 11065.866905 15910.495515 14013.872695 15849.860282 21731.410832 19386.534174 23176.022024 25938.529047 22519.799444 25314.587711 27130.877992 28459.143441 5889.999674 5088.094834 8826.193456 8065.079515 6956.519760 7019.457023 11509.862989 11528.176948 14015.010887 12220.939710 17070.110917 16291.954008 17536.075241 21242.668041 18008.156874 22630.733025 24332.039700 27069.274986 5874.647353 5965.925570 7182.766775 9276.509165 8383.791032 7179.246671 11428.681382 11314.761103 13670.398818 13702.452196 13930.907868 18350.107377 19210.902370 20675.322442 22557.862775 23654.856298 25689.498680 25726.390473 5758.058987 6164.386151 6535.437355 8851.301444 7922.700668 11375.982689 7105.860730 12742.118928 17307.282020 15309.496906 14808.940904 19043.316612 18358.529547 20708.164058 22243.154971 20755.258289 27464.937302 5059.613516 5529.837321 6688.678937 8780.392905 12972.184493 10901.835367 18252.233960 10262.114543 9410.880409 15204.571416 16507.422068 18625.389916 23897.409875 23056.774784 28415.905593 26688.048588 25634.618299 7068.021209 4776.665430 5458.619381 5939.832718 9105.503279 15171.879833 15799.563644 10463.021866 12804.401934 19082.795737 17642.110408 16927.059459 21499.947498 26126.139569 19924.049434 24106.189259 25788.895902 25752.725733 14046.278040 5794.391729 12117.103048 6635.475710 9095.932775 6037.446963 13526.813257 17022.320833 18803.981544 20206.276791 17951.066649 22791.309310 20343.275572 20889.500311 21306.372514 24891.030641 7088.967397 5325.090983 9489.900648 8008.586903 8843.147436 10260.074546 12908.761810 16116.487800 13196.524172 10611.257557 18252.653657 17437.832141 20105.580559 22405.171772 19347.302155 24784.834548 6973.375849 4451.465378 4912.140446 7953.208115 12725.238921 14340.135343 14832.509711 15729.838393 11010.823186 15976.397434 19830.410795 16315.659971 21200.433485 23143.433486 24286.703022 22901.214754 5916.945212 6563.614862 5000.124428 9107.114603 7370.554823 8488.340320 13677.476520 5967.411384 8620.094428 13921.641500 14148.803964 19852.206538 19663.601308 20589.442674 21973.943276 4803.374476 5619.741623 6946.680819 7259.480895 10146.478469 6863.356201 6753.493261 11596.296037 12022.562402 18064.358691 19364.896827 21004.107796 18233.226670 11378.432909 21418.061396 6956.758006 6844.716337 4642.225928 5818.290254 9260.643145 10833.864167 6193.159049 10211.197436 12730.573370 10676.728802 18999.188133 11408.685608 21624.322505 17897.172613 21369.439000 6048.551601 5560.475811 5268.226826 5798.004728 7621.510663 7952.834652 9800.565304 14694.611456 12374.458474 8742.865568 19249.819475 19570.071371 20557.799135 20487.447668 9443.168838 6527.804646 8496.154921 8533.511294 8084.107048 8884.768213 10260.429888 10924.306324 12239.107811 13802.991419 17851.174494 17778.549450 20462.834060 19669.912186 4576.136685 3110.752190 6403.782224 7309.592526 10419.055782 6978.131539 13763.592112 12062.997020 9751.256996 11006.318684 17161.585560 15105.913602 14035.949317 19663.904763 5634.275099 7918.827488 6533.643651 7584.311108 12589.593809 9368.535758 11466.157309 15056.733894 16271.154269 12606.532467 13356.198550 19532.998706 19658.350828 3521.027625 5104.476123 6255.886852 7965.535703 6784.731457 10335.742261 7807.290237 11220.393608 14148.225958 13492.425092 17007.084590 18988.111096 19154.005724 9742.867726 4900.284422 9426.202310 4583.938613 8360.533051 10348.485322 11225.362559 9237.978896 14517.663021 12445.382165 16659.994745 18221.759747 18402.158307 6211.608760 3411.499225 4162.207191 7281.454271 3149.375319 11079.880087 7574.923718 16525.103612 15658.570525 16198.476092 15708.848472 16919.782439 10290.672716 4959.305677 3861.935515 3783.275999 7386.782052 4560.771431 9191.540334 15159.699371 14807.326387 16689.576926 16122.950043 17556.372797 4359.112524 3745.937946 3038.862870 5483.145967 5328.248524 6270.154834 13252.326601 9674.152894 13539.766559 16689.796531 14870.541737 17513.652448 17560.746953 12142.589984 4040.169076 5557.781575 3876.623436 5482.073816 8955.704709 6248.872954 15041.023232 8382.236758 9438.866596 16570.502463 5450.042564 4386.062583 5160.943550 7008.287950 7905.241101 5883.905420 4307.522901 5406.442037 16587.178185 8581.754579 15217.684485 3683.647543 3945.782673 3497.693865 3974.114021 4730.518726 7243.713256 6319.219597 12818.580074 13937.634598 12691.968013 14791.654889 13982.732880 4025.404487 3686.625266 4540.233498 5412.840843 5482.849903 4682.585764 7340.056658 6612.281273 14047.780993 13119.243426 5612.062785 4515.286285 5349.563109 5238.991710 4316.044199 9747.387499 12041.405697 11368.133732 14486.861272 6356.646228 4604.040935 4925.240116 4780.777464 5536.313475 4983.823600 9910.536854 14339.079342 12862.544143 14861.984517 2824.798920 3258.763801 4383.538229 6349.765010 6994.322822 6489.976890 6684.805218 6935.570786 13053.935235 10429.215675 4360.578827 5026.512297 5127.437484 5759.845632 6706.916876 8742.961241 6984.275187 12314.936389 6432.839339 4853.230813 4028.509955 5800.102254 5256.602490 6498.250396 8653.324499 10564.273978 11844.968582 13567.553997 9162.771093 5764.673444 4675.712210 5126.314060 5878.526584 11482.449206 12923.859595 15150.806905 6902.714846 5907.044481 5720.518779 6017.671631 3857.256118 7016.922914 9664.028504 12920.105274 6750.031764 6814.270657 4643.019184 6434.358795 6023.979777 12430.691249 8474.061664 7859.573097 6402.304225 4924.294684 4189.845312 4250.750202 5601.900873 4227.786920 5432.180169 5380.571720 7035.453874 5615.610565 5336.184253 6229.334396 7379.748268 2978.860534 8824.208252 5102.152184 6973.910494 5908.432703 4696.473690 7639.660755 7619.572303 8815.987402 8710.554063 4501.678737 5443.820086 4837.637588 7419.730835 5776.991306 5626.890711 7009.532887 4821.485022 4693.204891 7941.600642 9833.161163 7573.540971 9218.338030 3680.138222 6006.803470 5694.870587 8834.245770 9947.183553 7734.224266 5703.889051 6203.059976 16859.946848 10476.586159 5349.048675 10136.108343 5829.981561 10405.121712 6706.030212 8374.584733 4990.413122 5369.566606 9091.639646 10195.864637 10038.712678 6273.896282 4004.962172 12462.182877 7704.753397 6904.913260 9755.906573 4442.203970 6435.963830 7276.779440 14537.190217 11014.145711 6285.215364 7375.659817 19132.429259 12136.709474 6322.635158 14256.161422 9854.047112 5522.327439 18869.261624 7074.259254 12378.694792 6005.031217 9068.575404 6680.804723 9940.206495 6625.016086 7179.484268 -988.674754 -1790.111917 125.067378 -350.799568 5828.218874 7083.141180 7968.334292 -126.426604 7917.509170 5889.489998 584.146284 7504.064970 1198.005567 1313.880330 11016.802240 5676.883831 12374.391446 6580.113538 13482.537894 11979.881355 10075.726084 13717.554550 9462.493710 9772.370031 16960.855388 14256.560638 8993.541100 11826.829011 7498.288112 10713.239873 8956.912303 1871.749664 6252.697496 15377.695763 18368.133092 15067.188178 17069.802477 18653.170798 8980.316639 14153.229685 8791.551366 9780.637955 12673.334902 13288.307649 10861.451138 8174.619709 6336.865490 5957.944730 8887.825411 10170.520570 15155.618816 8772.141678 7133.746580 16855.456417 20594.467064 15283.021956 7217.078634 1758.240544 16375.069546 15239.199888 6585.374086 6564.276454 5174.215871 8936.467451 11192.901445 9258.821105 12844.530548 16175.641953 15068.522701 11051.629629 12380.991181 10382.574669 15437.173352 10090.027653 21114.768021 7550.702876 7404.211312 5305.347071 7917.816179 3544.388749 7461.204997 11666.284879 8463.473960 11960.168038 13864.126800 16323.480054 9366.594680 16791.895146 18459.361650 13025.770193 6650.922396 5124.780031 5831.098177 5474.504264 5232.731015 6191.359319 6259.636185 18145.487084 9623.214181 17319.080379 11673.227842 12959.117425 13618.998211 15684.993815 19921.965356 5734.476820 4823.322966 3725.513655 9627.094581 7911.223014 9671.822485 10188.828532 9236.285956 15211.012568 12876.529565 6816.780637 11455.735382 10150.591498 16851.051904 21195.869112 5236.144277 4555.290542 3563.987091 7148.592407 5818.692906 6387.358319 10169.089575 5696.072513 10409.166353 15199.165097 14577.831893 16220.188592 8109.873848 12228.919483 11889.927993 4928.727673 6955.321458 5130.729541 5629.280991 7414.230052 13567.053747 12876.378360 10445.654073 3606.589529 8480.191356 17235.917454 14146.596657 12100.301759 19008.894829 18452.914849 7326.551410 3938.525972 3585.480706 4169.239566 5174.530890 5324.188898 4352.281983 10414.581017 14504.556904 13445.748913 8734.703245 10443.682648 12605.284493 9989.199718 19210.116561 4855.723222 4266.477769 7531.366333 6366.996848 4811.237049 13194.925046 6652.097820 14542.746859 6700.890689 4287.969754 6297.515609 11960.282394 10307.915169 8318.076598 9486.485291 5255.874360 4370.982254 4725.352884 5916.552938 5549.116175 6295.983220 5295.476506 6627.352797 5051.535210 3936.005590 5564.681506 8038.522152 5313.379943 4844.702777 10389.382909 4883.169092 4411.285857 4071.504142 4551.626317 4319.967048 5470.307704 6399.824093 5100.709785 3762.130028 4396.966631 4796.057496 4544.024696 4017.644068 6308.376980 6642.090850
</DataArray>
<DataArray type="Float64" Name="Velocity" NumberOfComponents="3" format="ascii">