<VTKFile type="PolyData">
<PolyData>
<Piece NumberOfPoints="2186" NumberOfVerts="2186" NumberOfLines="0" NumberOfStrips="0" NumberOfPolys="0">
<PointData>
<DataArray type="Float64" Name="Pressure" format="ascii">
 26411.143060 26416.425030 26312.146708 26264.730038 26258.705336 26082.420392 25551.035427 25804.714672 26324.896854 25744.106062 25845.512417 26442.298304 26345.197088 26148.026081 26358.467780 26494.332456 26434.224393 26597.049062 26273.151244 25877.722523 26110.448624 26319.600238 25867.483468 25541.650882 25543.466216 25496.717164 25912.888361 26183.487113 26667.808404 27018.866013 27112.654167 26928.449018 26605.013017 26303.037976 26121.435770 26460.838980 27175.405265 27436.252042 26908.060286 26635.209526 26996.152148 27100.318138 26917.310680 26980.122853 27252.453655 26994.205995 26613.590898 26379.979203 26170.852946 26029.683002 26002.047325 25879.069596 25602.153767 25472.174795 25961.073021 25918.051729 25896.962994 25958.729921 26024.817728 26076.187485 26139.208865 26210.301610 26323.621465 26392.072204 26488.776209 26783.356539 26949.918007 26843.544543 26856.832774 27027.542378 26973.002066 26744.522833 26666.278653 26582.162821 26366.970355 26302.093025 26480.690074 26629.982327 26655.149771 26487.654112 26051.106341 25553.628050 25353.758389 25496.717164 25456.833916 25336.800436 25213.108852 24511.838266 23708.986277 23017.914085 22838.145968 22967.144853 22545.898316 21834.362840 21274.483814 21229.876759 21380.135247 21377.298328 21042.626685 20559.520274 20140.372863 19788.687602 19232.480713 18591.765513 18493.666916 18559.933084 18203.706058 17717.739608 17341.101880 17253.833436 17125.155887 16781.508035 16351.833419 15895.691731 15552.677779 15355.164052 15187.161444 15095.052050 14957.434208 14598.060022 13959.913786 13556.336912 13462.864195 13234.872261 12750.499334 12360.794398 12269.686132 12310.158687 12460.040276 12513.952335 11831.397601 11411.923006 11224.862146 10978.180977 10667.913789 10287.785350 10168.854686 10055.038947 10049.377874 10077.489376 10062.825580 9816.865295 9477.849542 9403.611949 9734.946091 9870.162459 9875.799447 9644.624799 9343.887174 8954.615569 8429.759890 7931.391079 7625.740817 7074.120949 6349.807540 5750.162061 5387.028052 5086.042193 4736.114508 4154.048002 3695.785646 3186.364998 2664.055675 2357.734598 25472.174795 25534.333127 25722.128776 25578.697600 24848.285041 23975.448978 23330.419219 22963.867975 22982.360893 22948.993771 22326.617714 21498.404946 21101.176529 21101.535455 21231.566407 21177.990673 20841.068397 20351.904651 19691.252713 19028.854603 18695.213356 18630.620239 18502.968485 18167.832693 17770.179635 17445.473712 17197.256362 17026.272033 16767.380481 16396.422822 15966.232795 15608.703760 15391.386277 15275.422917 15152.879735 14846.350704 14368.955576 13928.071801 13658.818688 13441.015842 13167.556866 12772.364078 12411.667309 12282.994050 12297.227683 12271.719053 12104.343191 11743.842437 11345.743487 11079.589967 10919.224832 10620.935510 10270.047762 10089.692173 10022.743871 9953.275708 9916.695799 9873.897550 9659.289955 9437.385585 9385.693262 9453.469926 9515.696284 9511.989237 9329.017325 8865.552200 8320.032033 7905.521938 7570.184288 7221.611830 6725.234426 6051.864291 5477.800285 5204.372964 4958.747552 4490.189804 3967.106685 3498.145685 3048.125093 2600.518250 2404.618030 25353.758389 25262.563361 25135.872339 24907.078888 24503.585503 24041.174812 23690.642951 23401.207785 23067.337265 22709.172471 22258.606332 21809.331821 21471.893182 21210.020284 20988.484316 20734.754209 20436.208521 20163.557289 19914.710876 19633.434277 19320.801501 18939.685277 18539.371692 18172.533366 17808.298611 17459.308480 17142.952319 16870.795121 16616.499685 16324.786950 15986.484138 15682.221016 15452.102890 15273.264839 15078.169236 14780.126553 14377.429482 14006.875673 13731.860850 13483.537306 13199.914760 12877.412735 12565.593078 12351.446377 12249.689140 12163.927341 12015.872358 11796.815514 11520.323382 11247.939535 11008.698468 10755.458409 10470.440953 10226.802515 10079.987465 9975.771909 9875.497602 9776.659684 9647.558264 9496.143090 9386.038939 9342.063568 9330.544298 9287.913219 9142.116435 8829.083091 8387.554356 7957.531253 7599.434528 7261.837972 6867.733695 6381.464350 5860.766903 5409.259517 5039.152895 4663.416716 4234.457401 3780.057558 3332.207109 2904.324774 2556.541864 2437.894595 2357.734598 2127.005710 1800.020273 1569.557798 1424.632166 1310.814759 1196.961990 1111.260526 1047.035403 1008.719380 997.993945 996.830272 999.784901 1002.927680 1006.664646 1010.917224 1015.452000 1020.020572 1024.393498 1028.368237 1031.769320 1034.443545 1036.244871 1036.983149 1036.244978 1035.116864 2404.618030 2297.340241 2106.914004 1850.943963 1627.587640 1459.800664 1335.456809 1233.579944 1146.102172 1077.168119 1029.590720 1006.488259 999.264764 999.464248 1001.550205 1004.654085 1008.465509 1012.707016 1017.127245 1021.500270 1025.626322 1029.331645 1032.467540 1034.908825 1036.552807 1037.327321 1037.264323 1036.966545 1037.004076 2437.894595 2381.076622 2272.876104 2086.111499 1856.163606 1643.226241 1472.423628 1342.799182 1239.426054 1152.918467 1084.629970 1037.827727 1012.192196 1002.363063 1000.503358 1001.879650 1004.803459 1008.575341 1012.813035 1017.235903 1021.609433 1025.731056 1029.426408 1032.548491 1034.979691 1036.642121 1037.531667 1037.797177 1037.784450 1037.888600 1038.030639 1035.116864 1030.053842 1019.969413 1009.218682 997.725809 985.327709 972.019431 957.833901 942.817370 927.021208 910.498992 893.305243 875.494705 857.121849 838.240484 818.903445 799.162330 779.067290 758.666859 738.007817 717.135083 696.091644 674.918494 653.654601 632.336890 611.000243 589.677505 568.399512 547.195116 526.091236 505.112900 484.283308 463.623893 443.154398 422.892953 402.856165 383.059206 363.515922 344.238939 325.239780 306.528993 288.116284 270.010663 252.220595 234.754163 217.619240 200.823677 184.375487 168.283055 152.555352 137.202153 122.234280 107.663836 93.504469 79.771623 66.482820 53.657930 41.319457 29.492831 18.206701 7.493229 -2.611609 -12.067731 -20.830652 -28.851199 -36.075229 -42.443361 -47.890719 -52.346689 -55.734700 -57.972022 -58.969599 -58.631896 -56.856798 -53.535531 -48.552633 -41.785971 -33.106800 -22.379892 -9.463715 5.789317 23.532516 43.924519 67.128790 93.313026 122.648458 155.309027 191.470441 231.309082 275.000786 322.719512 374.636053 430.917274 491.727549 557.237852 627.660528 703.370724 785.308552 876.761810 983.282282 1047.101478 1037.004076 1034.453266 1028.500720 1019.446347 1009.112594 997.724738 985.356564 972.055729 957.870830 942.852806 927.054470 910.529861 893.333654 875.520653 857.145357 838.261596 818.922216 799.178824 779.081580 758.679023 738.017939 717.143250 696.097946 674.923021 653.657446 632.338145 610.999999 589.675854 568.396542 547.190915 526.085889 505.106490 484.275914 463.615592 443.145264 422.883055 402.845566 383.047968 363.504100 344.226583 325.226934 306.515695 288.102567 269.996551 252.206106 234.739305 217.604017 200.808079 184.359498 168.266649 152.538491 137.184791 122.216356 107.645282 93.485202 79.751549 66.461831 53.635905 41.296263 29.468322 18.180715 7.465593 -2.641083 -12.099244 -20.864417 -28.887444 -36.114192 -42.485294 -47.935881 -52.395352 -55.787143 -58.028534 -59.030471 -58.697427 -56.927288 -53.611281 -48.633943 -41.873134 -33.200106 -22.479618 -9.570127 5.675971 23.412008 43.796647 66.993379 93.169938 122.497592 155.150330 191.303905 231.134740 274.818676 322.529540 374.437529 430.707382 491.496322 556.951694 627.207881 702.378662 782.517869 867.218662 953.398784 1014.651118 1038.619169 1038.030639 1037.026169 1033.729721 1027.441092 1018.995724 1008.927683 997.636116 985.300191 972.010982 957.831307 942.816574 927.020963 910.498917 893.305220 875.494698 857.121847 838.240484 818.903445 799.162330 779.067290 758.666859 738.007817 717.135083 696.091644 674.918494 653.654601 632.336890 611.000243 589.677505 568.399512 547.195116 526.091236 505.112900 484.283308 463.623893 443.154398 422.892953 402.856165 383.059206 363.515922 344.238939 325.239780 306.528993 288.116284 270.010663 252.220595 234.754163 217.619240 200.823677 184.375487 168.283055 152.555352 137.202153 122.234280 107.663836 93.504469 79.771623 66.482820 53.657930 41.319457 29.492831 18.206701 7.493229 -2.611609 -12.067731 -20.830652 -28.851199 -36.075229 -42.443361 -47.890719 -52.346689 -55.734700 -57.972022 -58.969599 -58.631896 -56.856798 -53.535531 -48.552633 -41.785971 -33.106800 -22.379892 -9.463715 5.789317 23.532516 43.924519 67.128790 93.313025 122.648454 155.309016 191.470404 231.308964 275.000401 322.718257 374.631962 430.903939 491.684074 557.096102 627.198343 701.862987 780.402988 860.507420 935.801318 995.858081 1026.171614 1033.933544 1047.101478 1128.197578 1276.262831 1419.557027 1562.209133 1707.497547 1855.876219 2007.069386 2160.519882 2315.529697 2471.307477 2626.993464 2781.684002 2934.463768 3084.450195 3230.854839 3373.069275 3510.788303 3644.189332 3774.188527 3902.776678 4033.368171 4170.901631 4332.100806 4528.537580 4765.080740 5316.404774 5786.550925 6188.495852 7155.318178 7819.607875 8480.796072 9781.506703 10894.594277 11523.481096 12426.763472 13189.247806 14621.247271 16246.598895 17562.940961 18842.569855 19972.561312 20978.118045 21812.588534 22457.751204 23403.577031 24139.253325 24560.845839 24941.053736 25643.720222 26411.143060 1038.619169 1074.062583 1160.122094 1286.707880 1422.280250 1562.919724 1707.622010 1855.842702 2007.009423 2160.476151 2315.517499 2471.333230 2627.060095 2781.792263 2934.612232 3084.634750 3231.067874 3373.298651 3511.016619 3644.395756 3774.361262 3902.961381 4033.817371 4172.473634 4329.789288 4533.550236 4812.454361 5255.948238 5723.565152 6197.535350 6928.612989 7672.407056 8440.927219 9517.062589 10551.801963 11442.967156 12332.296140 13312.813485 14742.569043 16181.330441 17469.902007 18699.754681 19829.294407 20837.580662 21737.248043 22467.335108 23227.025618 24109.113701 24743.182926 25192.186535 25735.386522 25987.100683 25912.888361 1033.933544 1046.836868 1092.113008 1179.994407 1294.667902 1425.113301 1563.925930 1708.026192 1856.039096 2007.119567 2160.535343 2315.534462 2471.308950 2626.993935 2781.684202 2934.464000 3084.450798 3230.856676 3373.074959 3510.805897 3644.243802 3774.357471 3903.302940 4035.019014 4176.136872 4338.315195 4546.108389 4835.263003 5214.135281 5661.739531 6193.576876 6834.873082 7564.079596 8416.793735 9410.872429 10431.749521 11404.613668 12350.969362 13484.190966 14824.022062 16147.628853 17403.104058 18588.322265 19699.206387 20735.151244 21685.454037 22499.435521 23208.997470 23940.146696 24573.686548 25070.269257 25454.908803 25711.553272 25883.877814 25961.073021 7944.653190 8084.437722 10513.409659 10841.087991 12300.368979 12743.731741 12570.733087 19065.369896 15105.710454 10826.851894 20057.467848 20626.728745 21650.557580 22755.871923 23024.184553 22159.033986 24097.924887 24128.504438 23730.504290 25058.687729 10857.467196 16634.336546 10373.507744 17367.512821 12995.103792 12739.530367 14103.238790 18219.052027 18262.160902 19162.538272 19173.616991 22800.477156 23751.976988 23313.110844 23532.118892 21785.448169 23948.637144 22307.486546 24605.648467 25102.747065 14052.238866 16536.107616 11464.521003 19673.282489 13826.361073 16107.463959 16836.049023 23246.007320 20569.202961 20932.038954 21804.925890 22304.496364 21544.208886 23752.450747 23267.865220 22816.008976 22235.241397 23737.415289 24793.833005 22522.914102 19165.668071 20256.822295 13978.414307 17589.769807 17252.018953 23052.269543 15152.426172 20804.753261 21106.902698 23182.734682 23360.122480 24638.146783 23978.181587 23266.979965 22813.710776 22558.865927 24701.948242 22808.728789 24905.392738 24836.032665 20462.854364 22915.260729 14077.225904 16740.674922 21928.568334 19503.274037 14577.804507 21513.541942 20224.044601 15444.047128 23160.728382 21540.883395 22608.665702 23160.668598 23342.668057 23540.985713 23743.458353 23030.472674 23108.731566 24469.659122 11957.947505 18879.572459 12808.383208 12801.595860 15996.649538 17241.965719 19956.826030 23519.056007 19368.451461 20224.367555 21582.686117 23454.659913 18158.555886 19316.439966 22774.998820 23095.698423 22637.429772 23662.265026 23555.668288 24593.876963 19819.284950 15673.754287 18470.219844 18797.884732 13861.864129 22486.478674 23186.320250 22196.332812 20873.176150 15887.614931 22071.618738 21881.363746 22878.111464 23498.921113 22301.254944 22038.923578 23022.852279 22841.323448 24496.440383 24929.733028 17080.826456 14026.625329 14945.581252 16592.991227 17034.866413 14618.592699 16743.805688 20222.375316 21271.371407 17229.202837 22650.835875 19251.293607 22939.993597 22549.938487 22848.239981 22565.917842 23148.799314 23661.398955 23589.214197 24796.199015 13855.548209 13283.268073 14912.395381 12108.436588 16955.718303 13951.782812 18526.659907 14653.518824 14896.360994 15904.293024 16168.672759 18189.550710 20428.279942 21989.713593 21719.356288 19472.402187 22611.006222 19723.670780 24070.163129 24273.502706 13365.146050 15105.044781 19688.178798 14054.946117 14873.736894 17798.467396 13414.762297 13489.508502 15893.704612 22116.118472 19277.077126 18089.445534 20658.408187 20973.110452 19505.226194 20767.437051 23656.329813 22395.432799 20843.072508 24420.058748 17239.486758 17817.935222 14113.993941 15752.740232 17795.461433 19960.556059 15710.317387 16369.786439 18263.284545 17948.309539 15817.216133 23041.700989 19901.507960 23164.048196 20709.553242 22648.514480 20854.035958 22832.870464 24910.789514 22924.292375 11623.643478 11624.764532 13934.139138 16693.154670 14037.702511 15461.380009 14580.341962 12644.644832 14277.964398 23430.272379 19490.048069 15453.219095 19805.512267 17838.263835 18501.916451 23631.810985 22801.886622 21031.133174 22860.432832 24986.636826 13475.176104 12471.277965 13880.243803 15157.358172 15879.691624 13549.300794 14259.572770 16977.459347 15026.229715 15691.831069 13970.163253 20809.339323 15048.953719 21109.986497 20382.132645 19451.122132 23117.836196 23755.616578 25207.212330 25405.430213 10672.239933 11525.087386 14817.543116 11874.531739 14606.430049 15812.678699 14874.069767 16266.642494 13388.833211 18115.641284 17316.685229 18463.729411 24267.238593 20791.380543 20973.282381 21946.843659 25368.936015 23783.459238 23419.611094 25160.876923 15191.923553 10558.303403 12095.466322 12579.821572 14685.484435 17550.626478 13308.953394 18434.792293 18517.141625 15801.824503 19632.475677 17019.292388 21058.826554 23197.844367 23721.098092 16371.999850 18886.242476 25682.007099 23155.719613 25563.407472 12421.545249 10856.229171 11386.166331 11300.730438 16115.611046 18491.556837 13447.530749 12452.473880 17360.106685 13019.022749 16251.058324 15029.235654 22911.687399 21835.626999 23742.270171 22777.713838 19805.927048 24545.513240 21932.107850 25521.747285 16252.940708 11654.536577 11152.412120 11819.148410 14033.836435 13452.618944 13748.898116 16155.376817 17605.129598 14197.791902 13642.720116 20847.916587 19056.977059 23555.067337 18138.012262 23522.480607 18771.939666 22093.156661 25596.457711 25932.068060 10478.313037 10708.258418 10898.861389 11359.292539 11475.268342 12042.069744 13842.905484 12245.584716 14220.703396 13884.212111 20760.381293 15415.448640 15440.399691 15022.305608 22137.884107 19359.099999 22064.972053 24094.796452 24668.407006 25814.835891 10814.074438 10785.263965 11082.394650 11558.106869 11164.077835 11642.018930 12842.321068 13086.151920 19387.493602 20894.294791 18201.924129 19704.270095 24971.602339 18623.034206 23412.132921 24588.990514 25131.857296 22990.258639 22121.299764 24225.629720 10857.240617 10225.142156 10960.010170 11244.976520 12092.083056 11311.888535 11468.645676 17635.763537 14174.342207 14770.557256 18322.798268 17486.882314 25809.934377 22201.004687 24555.076338 22856.316098 24755.140913 26502.196529 26183.150402 23738.494285 10849.834726 10991.869579 11015.348703 11147.155606 11051.042582 12493.248873 12693.137372 13914.823639 15433.701989 18697.380446 16186.314537 16145.830504 17227.807903 24530.590426 16781.605449 19977.043505 22179.564641 23705.913653 24631.687143 26174.854739 10114.322381 11334.993731 10677.947437 11145.411396 13832.536574 12393.444331 12891.233588 15740.755578 12895.956050 13815.314937 21698.012163 23618.005210 22028.750089 22181.513274 22763.933179 17173.345954 21820.693844 20994.995450 25341.531640 25828.584122 13360.304132 11026.900313 13872.924722 11208.831365 12090.211388 11502.016142 14254.181724 13181.034952 17285.227283 17058.649106 16134.380349 21805.068795 18091.547698 23180.580439 14648.733474 24114.864148 24729.513728 24248.497492 26166.531415 25190.709802 11170.719840 11075.749966 11188.586941 11470.794218 12613.978483 11257.034016 16384.213878 14380.885591 12932.041782 17865.095905 20972.243282 19748.595501 21091.480892 22360.047299 24666.118865 25321.206391 25682.409360 24606.487617 25909.919245 25522.042514 14500.110092 12035.073760 10440.301103 11381.478305 15274.807605 11937.810249 12393.745821 16188.688569 12394.297943 14362.167466 14921.633043 20680.784457 15534.314936 15769.760215 22317.729622 23164.212400 24484.174104 24731.157357 24612.103303 24503.294628 11901.673834 10989.892404 12296.246283 10927.791517 12204.328509 11563.081295 11528.923443 13186.104572 14302.155452 17186.874744 16178.916962 17368.182564 22010.984320 20854.877387 15683.049551 22505.700390 22136.756622 23159.218905 24737.066678 25521.387720 8151.321973 10768.473599 12938.515426 12039.461448 14695.325818 14772.988540 12108.273546 12616.571530 13364.920639 16999.896030 15176.379062 17559.191032 17302.763799 19882.637218 23108.199581 22874.766747 23473.308447 25081.436435 24362.017316 10540.402591 10271.269156 11095.001878 10959.443817 12266.618216 12952.795642 12265.368276 14472.988347 18486.659688 15112.328279 15846.425402 19377.139409 22521.618934 16495.577319 22180.073958 24172.694789 23159.911778 21947.407819 24153.117473 10613.457040 10263.263325 11976.572034 11021.454158 12753.378121 13631.802274 11900.562628 13091.951388 15615.312362 17489.292477 18885.440060 16998.348721 21579.309894 14644.843175 22419.431916 24017.839472 22780.869306 23068.805905 23560.199574 11022.769533 10925.600611 11187.499781 11103.895881 12738.266138 11950.466584 15205.469989 16655.345167 16572.387552 18160.704408 16380.414989 15615.710442 18458.294695 19045.659196 20641.112214 19844.424569 21371.142186 22205.702259 23074.936583 10401.947080 10643.701507 12687.542516 11990.477825 10848.440512 11043.584329 13362.297139 14164.189347 11980.230595 13313.537343 16707.312668 12560.803152 19217.135931 17990.988257 17452.658313 22359.823544 22486.005502 22812.574371 9926.089776 10578.791192 11066.418367 11463.914166 12692.402192 12021.969079 14241.606438 12905.827395 17625.971546 15869.490542 14576.834525 20395.605381 18442.660801 21497.633051 22336.932813 22407.604952 22078.983900 22614.311255 9977.352440 10781.366199 10738.229859 13429.033086 11351.559317 15370.857109 11678.398746 14430.195792 13502.573788 17086.078490 18780.473984 20204.357519 18072.632732 22188.997082 17366.840461 22500.530712 23956.756210 10166.918539 10185.744088 11007.688727 11705.266192 11793.598838 12085.861876 18395.463477 11570.562805 12357.243977 17283.837976 15195.818569 20414.589693 23712.646986 21337.266803 18713.804132 21651.188967 22185.416583 10720.557788 10800.229476 12005.271578 10345.250469 18655.723760 21218.711178 15182.195415 15105.579414 14635.908647 22784.558080 14933.614108 22263.187327 21417.512808 22356.710785 21131.110570 21331.622538 21315.547842 21317.654877 11605.832347 11079.826358 18646.093496 11335.935635 11035.784335 11398.690624 12722.394381 16098.579201 19872.058173 19302.530161 20624.384170 18762.333869 21815.363150 21233.193329 21496.803310 21331.140068 11371.808296 10653.948858 13357.029692 11440.624118 11533.876674 17414.341754 14009.586063 18272.805013 18702.395427 12874.070876 19607.026700 20916.551289 22006.601819 20858.538089 15468.990902 20299.470824 11240.974827 10851.294001 10745.732938 13311.300395 21854.235918 18619.023619 19035.302559 16390.952956 18223.573321 14005.873633 16919.801910 20711.159496 19728.203328 21803.317920 22775.816238 21141.006665 11661.310186 10491.510755 11141.406431 16731.828820 12196.370070 11632.968613 19937.358177 11890.445512 13024.167369 19876.033640 18432.628434 22798.047030 22171.111380 22070.006072 20183.576004 10857.491072 10792.077782 11180.840811 11242.804684 14455.565279 11493.151698 13928.107261 16275.906973 20636.256009 20827.973684 19657.202725 21980.058402 19588.349330 17401.648567 19785.806281 11643.242887 11333.184269 10645.938674 10939.127436 13619.985377 14670.967031 10619.739679 16514.111549 20336.903084 14387.835238 22761.178480 15335.882485 21497.965820 21064.509003 19622.932237 9493.287763 11010.479907 10273.772197 11143.905132 14058.748412 12481.434197 13201.486828 16091.588571 14255.502087 14575.011064 21112.677770 21773.804407 20003.386862 19441.502701 12211.525949 10925.433017 11613.624341 18822.708025 17769.739134 12884.536482 10979.152589 16080.707902 17717.176537 20856.245079 19557.630405 16283.335921 19817.098175 18893.599122 11949.025811 10065.178439 11565.813359 11943.652500 17919.173935 10998.599771 18316.948325 16833.197845 12611.393813 13389.111205 19985.349013 20317.843626 15299.387065 18506.531551 9961.423135 15532.403409 11092.659574 14491.678069 17613.598631 15563.011927 21036.500767 16486.739371 19334.342436 17677.748481 20458.256506 18470.739952 18413.795297 16248.310068 11315.753514 11354.078526 16327.727589 10000.206343 18605.005195 11090.757766 18871.190314 18725.027958 20676.998713 19828.521801 19590.937077 18072.582877 12236.738510 13565.529355 20995.524182 13253.101779 15829.283213 19357.889138 17756.773070 10663.403648 19306.895297 17899.877690 19584.490227 17458.812387 17983.754327 12833.329819 11357.609438 11101.579606 15469.420325 11562.545864 16331.425636 12116.751928 17436.786506 18632.101692 16993.294211 16366.497976 16265.023886 11091.353200 11043.824150 11627.231133 10685.996337 10355.891490 12735.524431 15217.730658 20455.027206 14619.491629 18554.306716 17070.427004 17214.143137 11211.250024 10859.901675 10683.901213 18271.816990 10443.432443 18154.802681 18432.901730 14129.741527 18561.335779 19091.003297 18076.941789 17212.755601 17214.402761 6201.612704 15421.978059 15029.254016 17287.585088 14328.994992 11977.047287 14716.003456 21595.970924 19331.844381 16813.966345 19557.197317 14130.706599 10602.574500 11353.448207 13532.175313 19777.388623 17992.245101 16351.290331 10458.878523 20973.199693 13044.294934 16032.229836 9799.476566 11680.459657 11640.074527 11435.068801 11356.988073 17592.957083 16303.282978 20258.731611 15565.179172 18080.756044 15655.948708 10215.327064 16413.521992 11372.396695 13671.114855 14064.960746 11401.856186 14509.048369 16970.475889 15395.339855 15346.853585 12625.768089 13100.862050 11321.966924 16897.619409 15769.548338 15636.685240 15728.648032 20474.492804 20211.497951 16897.262589 1094.446899 9548.644143 5318.932424 14753.924611 13416.972178 16398.794674 13748.802874 21226.312730 17710.743393 14973.370084 4559.508386 13817.564405 14790.540727 13185.761599 17007.039224 15176.258814 17111.294292 17780.038894 15008.244288 10325.200511 10072.606779 13954.068567 11694.623622 13334.620093 19070.769364 15156.778633 12432.637013 14882.458487 10622.945462 10437.724719 13714.507941 15076.098455 18472.369347 17008.314673 19893.555004 18690.913499 14345.472474 10260.894560 13122.446899 13076.353910 14549.446106 13378.977135 14417.997804 15186.830302 20101.408749 6778.512222 10325.816141 10593.213019 13149.603112 18037.015117 14377.029065 12402.429306 14823.519671 4039.861491 13354.580011 13842.757484 14213.275905 12761.101226 13017.448459 18222.549971 13169.697836 10691.030508 7694.000370 12048.893759 15068.152372 15247.757012 16905.232948 12441.423717 10161.323537 12411.167854 10765.154419 10212.354449 17478.342571 13716.023047 12320.286816 11655.157539 10808.828081 15252.491781 6211.106936 14674.662406 14911.503389 12308.800784 12302.408082 7988.310234 13312.405712 15122.634775 11544.865520 12532.955008 16674.812745 1012.627656 11799.212983 14218.918524 16681.416251 12523.955833 17611.191654 10450.197981 14775.690049 11906.368287 12974.934576 11591.839446 12481.417069 1420.517281 13386.051010 12719.085867 15723.900530 11512.481496 9996.259777 14267.506247 13845.216390 13047.059825 15990.956988 6529.384646 11666.011189 11151.932216 8421.719346 11378.279590 10676.804518 10540.692312 11004.185834 12886.600071 10043.274578 7897.933732 10445.036596 12598.513505 1545.930206 10361.911447 10206.152908 10270.917327 10709.728053 11993.047047 13307.593496 10099.552846 11589.442546 7332.940010 10220.575785 10042.321687 11437.402829 10117.897391 10971.301333 14804.710389 8564.039319 9778.899497 12032.711682 9718.297922 13088.924522 9965.385523 9879.544640 8892.723432 11972.364658 10906.696073 11339.503734 9977.407306 10527.609917 10679.079385 11594.506489 10151.645076 12655.616059 4691.870192 12016.067122 5844.682703 5938.378159 11486.918719 10127.003266 11985.239544 10250.163455 11102.187674 11777.702422 11342.689613 12039.965972 13066.583669 10754.429283 18108.815630 13977.073547 11506.911540 10876.129440 11874.159864 11667.624329 12587.745001 8628.635221 11245.986781 13040.107610 16038.363498 11596.679591 17948.056538 18333.043931 12805.684388 11357.911628 10939.577151 10283.510283 12037.655222 11845.506884 11120.363436 10652.508064 9962.720644 10009.369949 10495.304747 11721.709334 15226.889738 10454.146863 10801.962118 17553.376690 17755.058457 14461.960658 11252.844061 10204.569734 13030.667988 15054.966929 10220.433628 11009.853829 12785.059483 11122.970681 11466.646317 11810.228819 12806.634486 15915.241802 14880.898358 11300.103601 11238.202228 11086.602131 15728.185727 12186.810747 21303.236345 10841.657320 11649.061515 10439.301148 11874.297353 10508.175175 10742.798778 12889.737380 11691.421436 14070.128508 12840.770576 12088.955882 12416.132993 14533.393326 14037.725527 11156.602264 10622.913860 10492.017478 11263.313062 10595.767706 10671.116947 10992.274594 10793.316965 13640.211412 12441.371215 13505.461071 13224.444308 12414.019618 12527.778579 13886.465996 17215.341420 9051.026956 10839.148310 11104.675774 13123.962395 12176.481025 11738.842311 12389.881703 12526.661532 14706.280624 12108.421557 11403.720806 11587.876646 12854.529395 12685.530155 16791.359042 10639.989254 11059.981987 10752.523153 11772.509707 11190.830993 11958.534714 13673.642025 11379.705355 12415.942281 15268.858177 12196.875946 12939.935606 13122.615954 13103.966995 12869.979602 10942.469034 11103.981855 11468.538517 11097.546791 12140.269097 13616.403327 12106.373168 12690.034578 10844.324724 11788.986353 13038.216458 13903.017736 14418.334858 16854.738161 15587.536168 11687.489683 10345.585031 11217.331864 10623.834089 11384.153156 11360.056057 10978.204453 12069.125601 15070.970121 14786.406160 12622.550267 11638.947156 12370.463073 11960.639187 15915.832506 10542.150155 10493.272376 11894.911470 11497.626555 11216.011167 12505.362646 11671.334027 14638.910609 11257.242907 10983.278194 11471.962653 13152.837650 14055.075630 11877.474225 12854.730237 11197.060409 11142.940704 10892.592340 11497.564481 11269.056832 10563.261535 11490.774382 11818.472659 10835.727704 10837.022352 11371.411777 13503.957375 11412.548171 10915.258575 12074.053054 11078.316472 11105.257309 10414.941155 10932.351736 10686.016384 11722.163863 11861.751594 10498.885485 11096.946654 3412.303367 10852.907288 11283.633355 11081.672976 12425.534431 11131.629205
</DataArray>
<DataArray type="Float64" Name="Velocity" NumberOfComponents="3" format="ascii">