<VTKFile type="PolyData">
<PolyData>
<Piece NumberOfPoints="2186" NumberOfVerts="2186" NumberOfLines="0" NumberOfStrips="0" NumberOfPolys="0">
<PointData>
<DataArray type="Float64" Name="Pressure" format="ascii">
 28191.206032 28192.955262 27719.517475 27488.904645 27483.054659 27439.085924 27854.683272 28716.164132 28893.121620 29141.751878 29581.327291 29853.564963 29900.609270 29504.744404 29185.848334 28780.138211 28642.237849 28852.506394 29222.713856 29373.697017 29141.213831 28732.541726 28072.238588 27113.687074 26356.259794 25994.327681 27749.161638 27926.095428 28365.339772 28591.470416 28248.889367 27798.917690 27866.193207 28357.393678 28932.301191 29571.216225 30122.411725 30331.564591 30296.752167 30403.648832 30253.341837 29672.983826 29105.186135 28973.591579 29168.932241 29361.203897 29470.864643 29487.276263 29298.475206 28894.634787 28280.426270 27353.870596 26226.808019 25683.974629 27785.632233 27757.538984 27731.722853 27842.388622 28025.049916 28006.997481 27913.366564 28096.807040 28383.913874 28573.602622 28812.411893 29021.073524 29086.319776 29186.080571 29369.531438 29423.588957 29230.251117 29005.148676 28892.179884 28818.589616 28692.284868 28576.731331 28501.948515 28282.654281 27862.524197 27308.660549 26580.145550 25753.155154 25423.166167 25994.327681 25936.987467 26249.506057 26373.950927 26618.536047 27000.692435 26686.075908 26212.586629 25514.781434 24345.422701 23408.732824 22832.534734 22128.453258 21485.051258 20859.725265 20430.678151 20526.378797 20500.518652 19913.704702 19048.570348 18310.773015 18078.217712 17938.291997 17767.838923 17060.443596 16456.478592 16039.710340 15567.064637 14571.664779 14555.306448 14806.980890 14335.070037 13747.691580 13251.572654 12886.078730 12728.348022 12672.630936 12393.110197 12026.891416 11269.590337 10535.614244 9979.261472 10133.289946 10018.897431 9667.651859 9525.345619 9571.757791 9510.306582 9441.957357 9638.702609 10239.650804 10423.558564 9353.925359 8191.808023 7522.552782 7016.769919 6901.474804 6917.482417 6728.454068 6957.351231 7160.010964 7251.367342 7018.083941 6632.909911 6628.509050 6886.383335 7157.822194 7501.777992 7520.124616 7381.672502 6531.269095 5835.880248 5586.094439 4924.402219 4441.950895 3981.903128 3590.450029 3692.585762 3670.481035 3308.800541 2976.093096 25683.974629 25592.879943 25868.287535 26489.229784 27005.166320 26975.791596 26495.169684 26045.615904 25451.938206 24531.868442 23668.503350 23044.143120 22478.199718 21959.779815 21456.751365 20928.099236 20652.050453 20362.707254 19793.375334 19052.256581 18355.682049 18078.077137 18012.345906 17699.427716 17129.217874 16625.121433 16067.211678 15491.637625 14932.999547 14852.170141 14875.628892 14632.274786 14185.070477 13697.860237 13210.712150 12747.383216 12364.516890 12100.594751 11781.946160 11198.059604 10569.210275 10240.761500 10064.444271 9743.870303 9446.604074 9411.253668 9466.104286 9489.878599 9475.750005 9548.023717 9822.283073 9682.166676 8974.435086 8253.375372 7700.637683 7185.054451 6779.017977 6746.914597 6914.619474 7037.200727 7241.757558 7249.557960 6992.800118 6932.625584 7026.768705 7072.303815 7047.541361 7004.157628 6808.888731 6389.826377 5945.402041 5579.806179 5293.139599 4959.056103 4449.249282 3993.187324 3810.630385 3744.809074 3554.836592 3192.048809 3003.439822 25423.166167 25374.647612 25461.845646 25717.977338 25934.625509 25878.980380 25652.215025 25339.475744 24888.505803 24339.099006 23817.661653 23368.814039 22896.654202 22360.033299 21810.235188 21296.146445 20828.135698 20355.210928 19821.400625 19281.174846 18780.933730 18391.575806 18100.253794 17695.594547 17193.757296 16652.348031 16044.314941 15424.076048 14917.933935 14615.648470 14444.939333 14228.733687 13863.594718 13473.736241 13158.229892 12832.510511 12444.480992 12072.070695 11708.682685 11249.968670 10731.209128 10317.094812 10044.663264 9817.264391 9594.797732 9445.995295 9388.368463 9354.981467 9299.425616 9251.438406 9262.764013 9211.116169 8957.856200 8568.019766 8157.507477 7766.372881 7417.977046 7196.157488 7126.482521 7142.508999 7201.393302 7218.595494 7132.694310 7043.031349 7018.920984 6990.177695 6896.691227 6744.712803 6536.723767 6267.779806 5973.609353 5684.063279 5407.617308 5127.582538 4791.238891 4414.756295 4089.057019 3848.234587 3632.664021 3376.051627 3121.272843 3025.765452 2976.093096 2709.031586 2322.572017 2050.278228 1878.462690 1744.645232 1610.212650 1507.241203 1430.509892 1388.540438 1387.738178 1396.220052 1403.407919 1406.903331 1407.648189 1405.935312 1401.899827 1395.678432 1387.428622 1377.317977 1365.505903 1352.111882 1337.131867 1320.086484 1299.924451 1287.561404 3003.439822 2898.606128 2682.580399 2382.425888 2118.729221 1920.923757 1775.005043 1654.904632 1551.169376 1470.565455 1417.995718 1397.995604 1397.185776 1402.181558 1406.008062 1407.749395 1407.305517 1404.683538 1399.961081 1393.259676 1384.725187 1374.512593 1362.774988 1349.657025 1335.299711 1319.908561 1304.304032 1293.419195 1288.981789 3025.765452 2976.568146 2866.674937 2656.880632 2388.724503 2137.779971 1936.569253 1784.353389 1662.669714 1560.799474 1481.756560 1430.560606 1406.649371 1401.471112 1403.534519 1406.343873 1407.788648 1407.232517 1404.541278 1399.755414 1392.987844 1384.384205 1374.104320 1362.317049 1349.216870 1335.095662 1320.560782 1306.946879 1296.338867 1291.099002 1289.686412 1287.561404 1271.814779 1243.307973 1215.969893 1188.929141 1161.497825 1133.525819 1104.993359 1075.923839 1046.357093 1016.341432 985.931052 955.184945 924.166135 892.940948 861.578237 830.148572 798.723414 767.374307 736.172085 705.186134 674.483706 644.129296 614.184089 584.705483 555.746682 527.356370 499.578448 472.451855 446.010444 420.282928 395.292881 371.058791 347.594161 324.907650 303.003254 281.880506 261.534710 241.957190 223.135551 205.053955 187.693392 171.031966 155.045166 139.706141 124.985961 110.853876 97.277553 84.223309 71.656329 59.540861 47.840406 36.517884 25.535791 14.856336 4.441564 -5.746530 -15.745905 -25.594389 -35.329595 -44.988851 -54.609137 -64.227010 -73.878541 -83.599235 -93.423948 -103.386779 -113.520950 -123.858651 -134.430852 -145.267069 -156.395085 -167.840599 -179.626815 -191.773938 -204.298582 -217.213068 -230.524606 -244.234344 -258.336270 -272.815964 -287.649179 -302.800246 -318.220297 -333.845296 -349.593884 -365.365032 -381.035512 -396.457200 -411.454223 -425.819956 -439.313897 -451.658317 -462.534433 -471.577006 -478.363687 -482.386441 -482.962176 -478.889425 -467.712287 -458.227235 1288.981789 1282.204747 1265.572901 1241.272883 1215.437891 1188.790417 1161.475586 1133.537583 1105.014193 1075.945981 1046.378005 1016.360181 985.947214 955.198268 924.176446 892.948122 861.582190 830.149257 798.720825 767.368472 736.163066 705.174027 674.468633 644.111405 614.163551 584.682488 555.721435 527.329086 499.549355 472.421184 445.978429 420.249805 395.258881 371.024143 347.559086 324.872363 302.967960 281.845399 261.499973 241.922994 223.102056 205.021305 187.661722 171.001397 155.015806 139.678086 124.959296 110.828674 97.253876 84.201212 71.635854 59.522044 47.823274 36.502458 25.522085 14.844357 4.431316 -5.755048 -15.752700 -25.599469 -35.332971 -44.990541 -54.609158 -64.225384 -73.875293 -83.594394 -93.417546 -103.378857 -113.511554 -123.847835 -134.418681 -145.253622 -156.380454 -167.824898 -179.610178 -191.756528 -204.280592 -217.194730 -230.506195 -244.216184 -258.318744 -272.799519 -287.634335 -302.787605 -318.210549 -333.839233 -349.592404 -365.369150 -381.046368 -396.476069 -411.482527 -425.859300 -439.366156 -451.725945 -462.621455 -471.692337 -478.532222 -482.686824 -483.658607 -480.975233 -474.677184 -469.033387 -467.676564 1289.686412 1287.280037 1278.595658 1261.685581 1239.727836 1214.891980 1188.597134 1161.395918 1133.494525 1104.983750 1075.920889 1046.356188 1016.341153 985.930966 955.184918 924.166127 892.940946 861.578237 830.148571 798.723414 767.374307 736.172085 705.186134 674.483706 644.129296 614.184089 584.705483 555.746682 527.356370 499.578448 472.451855 446.010444 420.282928 395.292881 371.058791 347.594161 324.907650 303.003254 281.880506 261.534710 241.957190 223.135551 205.053955 187.693392 171.031966 155.045166 139.706141 124.985961 110.853876 97.277553 84.223309 71.656329 59.540861 47.840406 36.517884 25.535791 14.856336 4.441564 -5.746530 -15.745905 -25.594389 -35.329595 -44.988851 -54.609137 -64.227010 -73.878541 -83.599235 -93.423948 -103.386779 -113.520950 -123.858651 -134.430852 -145.267069 -156.395085 -167.840599 -179.626815 -191.773938 -204.298582 -217.213068 -230.524606 -244.234344 -258.336270 -272.815964 -287.649179 -302.800246 -318.220297 -333.845297 -349.593885 -365.365034 -381.035518 -396.457222 -411.454292 -425.820188 -439.314664 -451.660857 -462.542843 -471.604847 -478.455828 -482.691371 -483.969936 -482.244560 -478.329214 -474.214975 -472.672426 -472.848159 -458.227235 -429.235840 -370.946571 -307.214563 -236.133269 -155.300406 -63.192981 41.526438 160.135819 293.880919 443.968975 611.550747 797.699022 1003.390028 1229.496832 1476.808362 1746.092303 2038.222005 2354.381670 2696.342280 3066.751748 3469.303415 3908.487447 4398.332012 4944.636845 5413.056435 6115.688673 6796.014547 7473.219659 8805.691564 9914.295875 10593.946364 11651.413446 12597.120981 13968.542859 18852.496395 19915.669951 18774.605971 19131.881379 19531.019034 20327.256518 21066.347100 21864.412872 22756.287987 23863.205084 24900.702272 25808.918624 26181.791999 26867.616612 27752.309276 28191.206032 -467.676564 -453.540796 -420.026018 -367.962283 -306.736085 -236.329377 -155.735158 -63.737740 40.910317 159.461083 293.153225 443.192638 610.730496 796.840369 1002.498893 1228.578429 1475.865146 1745.120757 2037.208063 2353.294428 2695.124226 3065.297027 3467.375571 3905.421712 4381.492493 4900.966550 5458.681605 6108.762023 6818.906745 7605.749459 8595.481999 9600.702750 10534.648363 11678.070752 13033.970735 14430.961100 16269.560716 18112.137749 19356.710534 19542.508850 19754.535512 20431.159185 21208.576147 22007.513789 22905.239167 23797.761590 24606.137757 25625.371772 26756.400204 27593.123337 27920.678138 27854.007903 27749.161638 -472.848159 -467.344117 -449.142699 -413.810782 -365.265668 -305.532358 -235.619561 -155.144256 -63.145479 41.540888 160.140215 293.882256 443.969380 611.550863 797.699036 1003.389960 1229.496574 1476.807512 1746.089567 2038.213321 2354.354484 2696.258512 3066.498716 3468.554472 3906.409641 4383.762000 4906.099572 5486.856441 6137.945078 6858.656088 7669.593077 8565.341433 9495.611467 10493.781917 11641.552199 12949.117899 14377.301542 15981.579455 17727.660940 18893.333881 19382.944073 19799.033270 20400.684683 21101.824239 21864.177536 22720.788295 23629.036881 24519.500929 25416.385791 26328.024521 27013.429523 27383.519905 27590.027909 27732.960958 27785.632233 10104.316886 10345.529257 10452.597027 10719.528053 14097.368459 17394.400150 18775.152471 20063.119137 17717.147827 11594.682997 21002.798586 21280.896603 22424.421708 24409.024632 24541.920384 23680.076957 25345.095861 25413.528307 25690.889085 26964.419619 11178.885822 15666.706399 9875.340499 18416.624125 12400.687900 14365.225100 14383.653143 18073.343012 20100.773383 19899.481618 19988.943589 24075.789244 25265.355283 25795.382735 25127.829800 22883.382578 25339.240949 25378.026440 26560.928437 26733.156587 15670.971317 17195.805689 10844.421827 20294.859015 14108.806180 18058.416603 18745.379026 26130.355301 21318.313747 21769.154074 22816.621820 23287.665450 22748.876102 25169.403913 25958.003269 26737.976191 25527.711235 25015.714927 26821.753465 24623.945052 19488.375994 21573.570459 17160.330819 18192.877746 18444.952694 24542.564913 16728.916073 21334.777727 22985.432525 25167.003194 24961.443897 26598.258467 25517.058165 26165.633965 23933.308148 24418.946137 26706.468476 26669.453191 27289.235232 26918.179135 21530.032648 24539.820619 12656.228286 16796.778212 23885.130318 20206.820082 16092.907214 22873.598497 21077.513922 14628.908050 26144.973780 23056.642262 24060.942686 26172.803621 25205.127474 25061.696693 25252.335960 26838.670028 26785.775432 27088.295260 10966.246121 19545.254984 14014.751280 14448.616416 15735.552205 17257.749911 21088.122865 25999.341551 19526.385167 21785.187170 23105.760261 24991.399203 18424.466202 19504.582735 25373.686577 25594.088419 25230.850643 26230.911396 26258.840640 27608.661254 20714.166977 16550.794533 19525.441015 18849.461478 13704.048601 24107.397216 25211.695106 24076.709825 22441.336668 17459.694410 24015.953237 24082.026374 25691.042328 26039.037394 24261.735801 23512.620925 25287.136562 25076.685370 27526.985880 27247.842137 20003.523200 15378.115066 17469.464508 19040.460034 18166.157382 15681.985657 15193.146854 21056.992932 23025.797119 18531.681305 25326.558443 21731.536656 25224.871357 25084.268526 25294.925527 25596.366432 25607.129648 25223.800520 25783.678403 27284.288996 14563.541460 13421.744261 16360.125493 11637.147864 18572.892969 15105.213545 19587.993826 15503.875330 15824.096782 17367.149567 16736.441116 20084.313346 21303.448446 24065.201257 23419.086211 20747.933947 25196.430964 20894.537729 27182.164142 27299.738322 12844.984107 17541.718439 21477.444419 14558.449102 16893.228284 20341.438442 14835.493127 16433.274319 16939.124848 24026.572762 21155.374634 20144.938974 22388.222767 22686.445225 21107.243544 22705.560061 26491.424262 24392.069108 22245.761247 28014.874410 19011.231178 21045.496532 14243.145097 17896.107124 20827.963572 23117.353297 18713.038153 18197.344068 19019.347923 21053.827826 18610.590729 25901.169970 21065.690701 25414.401658 23984.959035 25287.730941 22118.803745 25643.256413 28451.531419 25477.834942 10344.097592 11249.651681 14520.542752 18274.025158 14891.722103 17744.369360 15691.644261 13006.047163 17616.087204 26359.265146 21943.608907 19167.618489 23389.374894 20108.093975 18887.640865 26299.068482 25665.318596 22703.970498 25769.155316 28288.284728 13473.953171 12995.511034 14150.416258 16773.616096 16881.974452 13523.350571 16232.929284 19636.070729 16810.677014 17566.218953 14903.722934 23110.649576 18560.462318 23219.575563 23272.911250 22456.401222 26372.911856 26737.672670 28293.902929 28646.259755 9821.237769 11802.538973 16987.863979 12924.494274 15480.080383 19387.313812 16445.566336 18111.482209 14620.667324 20645.449654 20305.425530 21801.866160 26760.987582 23662.306464 24353.204032 25051.169252 28049.490407 26978.045508 26520.445876 28243.035478 10692.298557 10040.018834 12138.658446 13072.376167 15398.096311 20485.342289 14371.696397 20137.829791 21268.809511 16303.103557 22923.922691 19331.673045 23486.258148 26516.896206 26077.352131 20244.775537 21813.502289 28166.160344 26646.254328 28126.625205 9443.568670 10131.809260 9554.093838 10874.197485 16642.312725 22129.692819 15601.673686 12555.860064 19467.300066 14462.216320 19375.733662 17040.145571 26476.156969 24585.870654 27177.836761 25694.539179 22377.264352 26580.129189 24724.303692 28015.185879 12398.221424 11697.578684 9154.196002 10962.736076 15455.962145 12788.050980 15511.092599 18676.278905 20533.523355 16018.356670 15451.209736 24507.439497 22340.734705 25629.421200 20762.444289 26003.976554 21500.543284 25328.037931 28259.566427 28140.280539 10583.101095 10307.048049 9929.458234 9889.389763 11298.794700 11834.603751 15129.117405 13673.798201 16326.939126 15593.872959 23667.395187 18589.016520 18606.260879 18068.951897 24744.028011 21753.373118 24454.984902 27630.481898 26899.941589 28278.393126 9003.750179 10587.715105 9385.874170 11869.192999 10658.232049 10862.878306 13224.999397 12770.481020 22498.131945 23240.599254 21658.736252 22362.095189 25929.235855 22197.484844 25197.814766 25682.063264 26182.487613 25655.732724 24570.553574 27070.249468 9858.979894 10184.074572 9869.928009 11311.131694 12428.476763 11875.666649 10925.945406 18847.950411 15817.426480 16766.733692 22306.199113 20035.005591 25197.301666 24920.110314 26068.557705 26095.636119 24927.684941 27771.925790 28188.665546 27461.258839 7678.134204 10421.449824 10182.431806 9884.422923 11387.859241 13068.709721 13555.106300 16167.023708 16592.261350 20029.151148 20324.079874 19592.102202 20921.418722 25559.690640 20211.413898 21777.075561 25037.023155 26436.066023 25631.412546 27405.061488 4652.060141 9464.281381 9744.841975 10524.079271 14037.688497 12245.828529 14542.526913 16295.267313 14232.146281 14770.124688 23571.754805 25542.939026 24321.382481 23646.827547 25089.988044 21038.727497 23350.168001 22558.212866 26831.906103 26957.681590 12523.252432 10644.268691 12843.402808 10590.812008 12978.381443 11229.213849 15765.851456 13993.423394 17832.753471 18895.827711 18375.974252 25044.735383 21633.409132 25502.392314 18573.824859 25670.501502 26908.837709 27103.883866 25650.886510 26332.737308 8410.946027 10222.310416 10847.108531 10060.454452 12281.253397 10792.986216 18387.861675 15014.636916 12495.072929 20558.108420 23843.481271 22786.580848 22882.632881 25088.487040 26024.653026 25213.717000 25651.444989 27061.328342 26160.490692 26077.441770 12630.938481 13819.686417 10142.826080 10620.642861 16221.928808 11699.779086 12247.677387 17218.358018 12999.102623 15563.779616 16705.481520 22575.298808 17106.473443 17451.439941 24783.314126 24177.595968 25031.464493 25953.297706 26333.632588 26026.880295 12031.671728 10545.722040 11580.877142 9543.972653 12956.201421 11701.857695 11542.485429 13699.720715 14219.552529 17743.767271 15912.533303 18835.078047 22822.919578 24340.498401 17738.168906 24905.721348 24703.676750 25350.404761 25904.759790 25979.251601 8065.124700 10357.998031 11587.580262 11372.694053 15074.096560 15142.979122 11544.486953 13534.261781 15085.345303 20159.646598 16672.481778 19250.488264 17704.676335 23214.405333 23659.739949 25551.367085 25418.899524 26077.387561 25902.694865 10490.664806 10061.671326 10893.630427 10365.369517 11825.247132 12851.223898 11366.944522 14299.450807 21268.470034 15298.572067 19145.130714 21193.959078 23648.711473 17999.057333 23230.925883 25895.276196 26009.517813 24035.873983 25676.537362 10430.957388 10168.368274 12575.442086 10331.525937 14479.950639 14578.107270 11026.096899 13710.956636 15409.613250 17637.073074 21639.055995 15855.722065 22691.378299 16563.507798 25468.382582 25822.154524 25032.735241 25357.127910 25392.971817 7985.950160 11000.972873 11615.954509 10172.976379 11749.669686 12948.370133 14702.303874 16911.770061 16542.301632 18574.426970 17095.643488 18501.933481 21054.660361 21138.131430 22290.436217 23567.252056 23389.272181 23362.311488 25637.749368 10851.202833 9805.140366 12437.522317 11540.023388 10486.172314 10756.338319 14080.452548 15402.018403 12404.469615 13731.807479 19027.460760 15095.222026 19626.430085 19765.015863 18425.350696 23823.494474 24681.418923 25622.191922 8747.750682 10820.683127 10417.704778 10445.052683 11826.542564 11803.389531 12797.745628 12709.460305 17282.074732 18326.834539 15453.687690 22072.816723 19876.426764 23230.484405 25346.965652 23352.036922 24037.553884 25039.159950 10361.512898 10531.937081 10937.961903 12232.615122 11319.812235 13002.100395 11502.990558 15715.298198 15742.401802 14688.481816 17964.319392 20927.107975 19818.360466 23128.221743 20178.492873 23778.684796 25196.511894 10277.535762 10708.162435 10781.329096 11172.313483 12244.397259 12412.825459 19907.652540 11933.891700 11763.508765 17778.151692 17372.442061 22084.827513 24903.124021 21863.771081 22397.639017 24785.433878 24131.708780 11259.176093 10940.822962 11273.342234 10931.732626 19597.662225 21582.218525 14162.916573 14364.701931 13655.990341 23022.270833 17012.918653 22758.939579 23402.793607 24396.904777 20004.326052 20889.076131 22924.713352 22930.490297 8455.959634 11845.790783 18519.326317 10922.266099 10937.056341 10647.105123 13753.909662 16714.799030 20473.032187 21201.918650 23020.006254 22358.839123 22432.051720 22798.117812 23281.562775 21630.901350 11215.272267 10447.614931 12956.141387 11847.781064 11157.986423 16873.263759 15569.629993 18923.707477 16398.549161 12252.606204 20916.803159 21238.264461 22743.603561 20502.801016 16597.712734 21818.375533 10008.047762 10334.115413 11113.581694 12641.330269 21980.200101 17765.469619 17063.277089 18485.463615 14835.576965 13111.176567 20594.238917 21900.816334 23038.273370 23525.514329 23652.782600 20567.389973 9369.215885 11005.959438 11041.442820 13320.092772 11967.232262 11288.306472 19498.368868 11629.220608 13461.243924 20399.817471 19077.723526 22441.278093 22035.243003 22674.397698 20499.721562 8532.627330 10616.125967 12252.287095 11092.349919 12937.481150 11472.359088 12616.634442 13447.776152 21352.859699 22017.114106 20077.275348 23284.828935 20864.466565 17559.965257 20618.472743 8839.255714 9311.810815 10006.494391 10780.071411 13065.402602 13024.177309 11036.651428 15323.233587 19595.074192 13819.226012 23062.277178 13447.907185 22763.521603 20574.923800 20365.345031 9937.597958 10502.610497 10126.706354 10640.655777 12597.320993 11732.317251 12341.097890 15171.751627 13770.147689 12671.761822 22668.405688 22878.632898 22601.530423 19582.543015 6872.744747 9751.043800 11610.876559 15781.671122 16982.740318 12237.851532 11600.347262 14538.284296 15777.726602 20410.198694 20391.470734 17986.746243 20561.050215 18677.001431 8946.782409 8755.422768 12386.609555 11694.494781 15605.525757 11111.979442 18844.016045 16167.184422 11972.197581 12358.516629 21032.805958 22678.476089 18379.686221 18041.943246 7905.724834 14686.058526 10585.870120 13898.187093 17448.638753 15451.077829 20417.990364 14208.225518 19647.623145 18415.834606 19591.169534 18013.072739 18079.766306 12556.212919 9023.603342 11099.171923 14740.343467 10354.038320 17876.729096 10856.939490 18279.921317 18431.622262 19405.971202 19601.473137 20062.874282 17677.475101 8049.170481 10172.872536 19265.962829 13567.080926 14630.386836 14682.245455 15025.243677 10732.502150 19979.159070 16552.309093 17497.934614 16448.939656 17269.477533 9891.815154 9548.248977 9974.098251 12569.658944 7739.661053 14553.776614 12747.254703 16448.145089 18153.703548 14285.931639 14049.984015 16058.851580 7828.282732 6850.456912 9465.329555 8683.872285 10361.219596 10855.899496 13488.311137 18865.964625 17272.088143 20877.476087 18621.607853 15863.776951 9284.368931 9404.568924 10966.542850 16988.783479 10452.627500 14124.561945 17658.120255 13415.195605 18285.845233 19582.297974 16429.846075 15858.783736 15865.718631 6275.886606 9746.758372 12670.112008 13872.221471 12158.546654 11655.914668 10654.967870 20570.763053 16713.963588 13275.498513 19346.601443 10652.355789 8521.083809 7528.393115 11491.193156 18199.734106 13894.221644 12425.239093 9251.892941 21539.052100 9861.031293 14048.795431 6314.308825 11458.301986 9724.741370 10233.081445 8720.522491 14992.449198 13995.198578 18713.802813 13936.946120 17880.710445 13975.189008 7493.030593 12488.185083 6833.043784 9945.683044 12749.258192 11032.858168 12463.287018 16316.064628 13704.481246 13493.130729 9312.264728 9910.588192 7694.024030 13699.866238 12891.451006 13600.873025 15209.321517 18370.924028 21077.215382 15502.327226 1483.888872 7136.605057 7839.134772 9852.193785 10671.611271 14147.710859 12241.470132 19507.658799 18615.145468 12617.196318 6643.129458 9085.201637 12582.570774 9987.042987 14197.107462 11414.260422 13904.624176 15738.729774 12431.545547 9507.738990 7806.701600 10040.608046 9933.655097 9690.288520 15324.285291 13568.913958 10339.845125 12257.574959 7234.267076 9183.401830 11980.713827 12628.170443 16179.306858 12554.963793 17754.476158 17528.508623 12663.126850 6410.588647 10680.893012 7009.443320 10031.366043 10243.849923 10608.373658 13050.449563 20287.733043 7311.325027 8525.577657 8147.139190 9182.989216 13965.125999 12716.142104 9504.375046 10400.908621 3519.640204 9625.918506 9722.238122 9576.101107 9818.984424 8908.027792 16027.492032 10377.192909 6465.527443 6383.050542 9562.862585 11820.337472 12187.130738 14402.121323 9862.478047 7733.133311 9727.423850 7708.280547 9037.278021 13519.158550 9824.657899 10136.380530 9066.539361 7606.916056 12228.392963 7737.847421 13100.843313 11835.037483 10125.641066 10127.617442 7484.943287 10272.848253 13528.210493 9006.261583 9645.545459 13762.705814 1393.379677 9278.569550 9972.705434 13281.796558 10700.889847 14619.631161 6637.538554 9928.611248 7744.628226 9836.801031 10044.027344 9552.827157 1874.451709 8741.832827 9734.944449 12217.229290 9270.821906 7290.249535 10321.348843 11918.285296 8445.196023 13785.153451 7655.500480 7489.706955 7715.212140 7849.512045 10229.899579 7435.078150 6920.528594 10833.551745 9491.870751 8498.092571 4780.631495 7252.340695 9466.592424 2019.005738 7641.765530 7030.069874 8465.669807 9656.457242 10589.870545 8717.431322 8124.004020 6593.757766 7794.220778 6672.856518 7763.427274 8595.369047 6882.956178 6892.224346 12252.885901 5597.725316 7850.835462 10166.716500 7339.795151 9435.118105 7063.829416 7289.098853 8526.689823 11217.032776 11120.840249 10832.420923 9508.620253 9585.726485 10460.288850 11544.113480 9842.288194 11549.393412 5345.220594 11882.780547 6941.661548 7203.407401 12176.925892 9865.087730 13548.033613 9893.570055 10724.951729 12675.091502 11378.499835 12680.850607 12438.188466 11053.296599 16196.973573 14233.642495 10948.799787 11511.439597 11682.693848 11560.725472 11339.302643 9596.009126 10282.900652 12996.730425 16856.504077 11805.051308 18253.214668 18759.148208 12314.491008 11823.877981 10152.873909 10139.475604 12633.877292 12326.903491 10986.551558 10424.044980 9574.503216 9701.449118 10388.712260 11606.807433 15624.469903 10208.768136 9580.498819 17448.178341 17870.580579 14809.682741 10789.426633 10481.889288 13557.553093 15685.902043 9721.914134 10230.651375 11765.926717 9725.705077 10749.026416 12708.002986 12869.892276 17070.310137 13884.526959 11515.634153 12020.620889 10007.545076 16576.281465 12886.761387 23192.586099 10973.236351 10806.908430 9391.504275 11989.968475 9610.095045 9641.704297 13910.360090 11549.661147 14279.811010 12417.380772 13692.321935 11934.477304 15973.136004 15879.751853 11510.855947 9981.155479 9241.920639 11045.342505 9524.740971 9685.495524 10155.090479 9726.667769 14443.393932 11747.824108 14741.395165 13519.077366 13130.829018 13167.532998 14229.187586 17514.730364 10058.650853 9558.537256 9811.352218 13432.235538 11486.855610 11538.623590 13101.826789 12817.907022 15918.937047 12005.044064 10478.078029 10486.318130 12969.328146 13174.237197 19662.534801 9323.723581 9792.806156 9540.536712 10765.951294 9855.248545 11780.037705 13916.104465 10024.389407 12318.460712 17469.770695 12153.283458 13911.053992 12409.650105 13107.810334 14954.321644 9164.610096 10209.913387 10150.601639 9905.983534 11939.890269 13838.804434 12163.483719 12050.645577 9772.560613 11101.681886 14267.023088 16463.939273 15323.090600 19454.973922 17094.909238 11234.838285 9487.631993 9925.084228 9805.724416 10116.873572 10210.964435 10270.583904 12829.454964 15204.522032 15686.816579 12420.473100 11396.933861 12796.219968 11433.985951 18002.971968 10920.154616 9470.805267 11560.028049 10277.550037 9801.466619 13830.837092 11641.011086 16703.581398 10215.294864 10146.620918 10791.004545 14026.414391 13364.268710 10822.117001 14006.924481 9914.605482 9825.495089 9833.308032 10882.525583 10408.930563 10413.494010 10589.555994 12542.633319 10175.702328 10157.535994 9794.716842 12597.816940 10677.689252 10177.501845 11916.727915 9715.514761 9806.381183 10143.995777 10019.642726 9860.611178 10775.363451 11037.465826 10630.366610 9504.138105 3830.530038 9322.058471 9684.261906 10223.523538 11764.546102 10708.666510
</DataArray>
<DataArray type="Float64" Name="Velocity" NumberOfComponents="3" format="ascii">