<VTKFile type="PolyData">
<PolyData>
<Piece NumberOfPoints="2186" NumberOfVerts="2186" NumberOfLines="0" NumberOfStrips="0" NumberOfPolys="0">
<PointData>
<DataArray type="Float64" Name="Pressure" format="ascii">
 30950.806535 31199.283267 31542.334494 31825.111692 31842.967621 31503.749010 31607.935056 32051.538288 32492.871001 32785.353924 32900.991769 32271.734579 32257.844070 32136.064772 31950.008188 32499.966420 32469.749743 32215.185593 32375.573607 32586.802075 32823.156974 32734.234460 32629.511872 31957.267979 30953.225305 30112.999549 30659.213806 30878.543223 31300.536124 31759.201268 31884.652512 31770.572544 31715.396078 31752.274344 31924.676783 32320.009795 32585.136531 32598.422854 32664.723800 32804.832497 32795.173583 32616.195987 32378.763985 32295.663964 32282.104155 32234.858163 32428.986310 33026.979159 33320.593712 32855.519373 32197.876564 31473.596396 30695.359385 30307.344884 30608.789996 30619.999441 30686.738813 30849.555480 31084.613778 31283.813040 31444.929338 31594.740988 31631.671556 31651.152772 31824.251767 32039.737560 32184.320726 32309.396237 32241.118000 32058.210015 32025.340453 32034.453962 32079.082358 32198.242477 32259.265822 32407.295782 32679.780297 32748.515073 32524.971133 32125.827180 31532.237020 30821.898441 30504.769176 30112.999549 29766.337898 29587.742121 29481.499037 29352.648707 28877.914007 28101.093290 27393.497947 27024.914518 26777.191068 26349.323332 25925.858568 25990.705923 25701.612509 25343.031522 25359.462919 24592.829244 23556.028909 22620.960144 22004.070885 21369.345084 20845.205556 21116.724155 21339.742070 20775.142918 20022.877591 19969.618946 19811.784766 19044.969273 18078.715617 17364.155237 17131.890322 16307.121358 14551.990791 14140.778744 13940.016612 12711.471202 11940.363237 11597.363069 11743.179661 10486.504518 7515.342460 5497.353380 4960.605846 4920.617818 4018.128573 3118.589776 2393.023012 1277.130300 1383.964811 3144.274108 3916.365377 -619.540572 -3243.405337 -1361.169004 -203.129241 -1578.125705 -3704.671357 -2364.962394 1368.496406 2415.617585 2774.747387 5063.635679 6230.032883 5287.044359 5143.731608 5261.272777 3807.929944 443.725469 -395.877047 1262.551530 1524.673573 581.352987 232.963018 1276.959582 2134.093224 2628.997706 2725.867883 2887.044755 3026.579962 3070.802070 30307.344884 30056.331624 29940.686806 29928.552177 29766.744786 29272.531706 28454.851779 27812.761665 27573.138640 27183.327021 26515.672038 26177.984854 25934.288675 25437.475000 25167.221857 25097.810358 24667.046755 23916.290576 23104.199178 22148.385764 21359.399082 21080.980795 21033.863187 20893.828708 20532.302543 20077.463252 19859.439476 19618.748522 18898.946724 18132.842172 17750.177859 17322.039849 16345.955921 14955.201757 14172.216528 13832.884951 13324.291141 12867.223567 12618.117594 12181.481344 10933.964571 9173.833084 7572.325667 6756.392068 6223.000223 5108.114534 3757.016594 2855.417612 2286.707158 2434.658402 3308.693353 2635.912389 666.627468 121.702330 533.207186 13.872514 -1107.742508 -1499.175123 -484.060072 882.059032 1339.393961 1862.353884 2963.484458 3093.347207 3065.141967 3329.611823 3068.189134 1875.197189 1127.750013 1481.076718 1921.215451 1719.830729 1405.311581 1575.591456 2015.695112 2369.928042 2594.749345 2774.130891 2927.770702 3042.411834 3086.244985 30504.769176 30367.531526 30254.223612 30179.300239 30008.046863 29643.125857 29079.655970 28504.232687 28066.254086 27585.178169 27001.890356 26522.041701 26159.923173 25780.897425 25365.503871 24896.632039 24398.178173 23944.189903 23486.374262 22876.274310 22202.151890 21657.891874 21177.937193 20710.943821 20311.735413 19956.708568 19650.200632 19360.296926 18876.102573 18197.902106 17575.905334 17029.725733 16347.285543 15551.581047 14844.518048 14310.841182 13863.517766 13405.400703 12955.195913 12422.306879 11655.228995 10663.663615 9609.413361 8607.246337 7610.644467 6431.873382 5141.851086 4076.422749 3439.262137 3216.234053 3167.949437 2800.320239 2060.211543 1560.415563 1461.562493 1238.695889 648.947078 40.963755 -110.213833 248.563532 763.807484 1275.522857 1856.093010 2328.606600 2573.892947 2745.519438 2770.293352 2483.162951 2113.177056 2020.572483 2165.712855 2236.305106 2140.930535 2064.514732 2149.182253 2335.226409 2517.991103 2676.435872 2823.948142 2957.253227 3059.557966 3092.784198 3070.802070 3043.160725 2955.457978 2876.068953 2838.675497 2837.377864 2826.962572 2800.205043 2779.097782 2796.185225 2880.184083 2961.697322 3007.248098 3022.094690 3010.588195 2975.520789 2919.332649 2844.448038 2753.318590 2648.393388 2532.045251 2406.384785 2272.697171 2128.952760 1970.401775 1878.274733 3086.244985 3080.191344 3050.429871 2986.536255 2915.646898 2870.217612 2857.044422 2850.915839 2833.504086 2819.804465 2830.658781 2879.710969 2944.003935 2994.361518 3019.886740 3020.811286 2998.929759 2956.217943 2894.774675 2816.775055 2724.433764 2619.972373 2505.590976 2383.448419 2255.704914 2124.990106 1998.263756 1911.589223 1874.912285 3092.784198 3094.261144 3084.029512 3052.219926 2996.098461 2933.475336 2889.734784 2871.883215 2862.318204 2848.698465 2841.335123 2856.534878 2898.612180 2952.569809 2996.774821 3020.052480 3020.124713 2997.698169 2954.475474 2892.495748 2813.934512 2721.029119 2616.050139 2501.320623 2379.357908 2253.373087 2128.751446 2015.718779 1929.044328 1885.255249 1872.522525 1878.274733 1789.830617 1638.071127 1502.900545 1378.421080 1260.905654 1149.657092 1044.630168 945.909376 853.555756 767.568601 687.881268 614.367079 546.847934 485.103297 428.878818 377.894328 331.851118 290.438477 253.339473 220.236005 190.813139 164.762766 141.786611 121.598650 103.926975 88.515154 75.123144 63.527810 53.523091 44.919880 37.545651 31.243888 25.873351 21.307233 17.432214 14.147475 11.363680 9.001946 6.992839 5.275383 3.796125 2.508241 1.370696 0.347473 -0.593144 -1.479222 -2.335768 -3.185258 -4.048113 -4.943117 -5.887784 -6.898681 -7.991708 -9.182338 -10.485820 -11.917350 -13.492215 -15.225910 -17.134229 -19.233338 -21.539825 -24.070737 -26.843598 -29.876410 -33.187649 -36.796237 -40.721512 -44.983180 -49.601255 -54.595994 -59.987816 -65.797208 -72.044622 -78.750363 -85.934458 -93.616519 -101.815590 -110.549988 -119.837120 -129.693305 -140.133569 -151.171434 -162.818696 -175.085189 -187.978528 -201.503850 -215.663528 -230.456888 -245.879914 -261.924972 -278.580605 -295.831506 -313.659058 -332.043613 -350.972265 -370.464780 -390.657362 -412.177326 -436.000938 -449.763435 1874.912285 1839.660515 1751.108890 1625.534758 1499.294087 1377.166583 1260.342357 1149.294416 1044.323672 945.617836 853.269065 767.285853 687.604055 614.097453 546.587798 484.854237 428.642078 377.670819 331.641450 290.242989 253.158268 220.068980 190.660018 164.623130 141.659925 121.484290 103.824251 88.423330 75.041460 63.455493 53.459374 44.864010 37.496902 31.201564 25.836797 21.275834 17.405401 14.124726 11.344518 8.985942 6.979607 5.264581 3.787451 2.501431 1.365523 0.343741 -0.595602 -1.480544 -2.336069 -3.184631 -4.046633 -4.940841 -5.884754 -6.894927 -7.987250 -9.177186 -10.479976 -11.910809 -13.484967 -15.217942 -17.125523 -19.223874 -21.529582 -24.059694 -26.831731 -29.863699 -33.174072 -36.781775 -40.706148 -44.966899 -49.584046 -54.577849 -59.968731 -65.777183 -72.023665 -78.728485 -85.911677 -93.592859 -101.791085 -110.524678 -119.811054 -129.666541 -140.106174 -151.143485 -162.790284 -175.056412 -187.949499 -201.474693 -215.634380 -230.427895 -245.851223 -261.896699 -278.552735 -295.803570 -313.629085 -332.004708 -350.901363 -370.284760 -390.108480 -410.230955 -429.965013 -443.734564 -449.246872 1872.522525 1860.763592 1815.838672 1727.763170 1616.547313 1496.397906 1376.417276 1260.289947 1149.467803 1044.571972 945.891482 853.550253 767.566909 687.880747 614.366919 546.847885 485.103282 428.878813 377.894326 331.851118 290.438477 253.339473 220.236005 190.813139 164.762766 141.786611 121.598650 103.926975 88.515154 75.123144 63.527810 53.523091 44.919880 37.545651 31.243888 25.873351 21.307233 17.432214 14.147475 11.363680 9.001946 6.992839 5.275383 3.796125 2.508241 1.370696 0.347473 -0.593144 -1.479222 -2.335768 -3.185258 -4.048113 -4.943117 -5.887784 -6.898681 -7.991708 -9.182338 -10.485820 -11.917350 -13.492215 -15.225910 -17.134229 -19.233338 -21.539825 -24.070737 -26.843598 -29.876410 -33.187649 -36.796237 -40.721512 -44.983180 -49.601255 -54.595994 -59.987816 -65.797208 -72.044622 -78.750363 -85.934458 -93.616519 -101.815590 -110.549988 -119.837120 -129.693305 -140.133569 -151.171434 -162.818696 -175.085188 -187.978527 -201.503847 -215.663521 -230.456864 -245.879833 -261.924710 -278.579750 -295.828723 -313.650005 -332.014156 -350.876413 -370.152728 -389.644460 -408.822972 -426.339374 -440.079391 -447.081975 -448.966269 -449.763435 -464.606864 -491.066816 -516.013188 -540.518654 -565.488195 -591.454183 -618.948426 -648.117487 -677.693738 -705.118762 -732.592329 -780.025627 -886.973557 -777.034309 -224.504253 -280.643204 -698.663545 -1146.695611 -1205.963792 -1054.832090 -896.074836 -808.502275 -949.201146 -1298.452303 79.929876 3433.263227 7942.279477 9358.315141 9095.183057 9791.702796 10825.244892 11839.626913 12956.228115 14059.881206 15510.109781 16953.086442 17986.117884 19066.146249 21068.813709 22792.135429 24148.409462 25423.052281 26680.729031 27692.182579 28697.567551 29435.532745 29575.283171 29665.354962 30315.844286 30950.806535 -449.246872 -455.457534 -470.764505 -493.055710 -516.538004 -540.650333 -565.487883 -591.391029 -618.862548 -648.144377 -678.044234 -705.567964 -730.914233 -768.974474 -849.846023 -936.239212 -877.582365 -859.380669 -1068.977629 -1249.669253 -1194.399584 -1029.769532 -852.746389 -680.569023 -515.340570 -199.573293 1141.065413 4006.252917 6780.045050 7971.096714 8547.387013 9370.655624 10521.851174 11608.094950 12442.319847 13414.023739 14765.611935 16110.066475 17347.860849 18579.850768 20091.276074 21777.596511 23393.529105 24786.804376 25967.110118 26958.187948 27803.944601 28542.188726 29185.317994 29767.140139 30369.885847 30699.344654 30659.213806 -448.966269 -451.158942 -459.071873 -474.532479 -494.545574 -517.060428 -540.839612 -565.581720 -591.472781 -618.965951 -648.274754 -678.164241 -705.585070 -730.153087 -763.745318 -829.254242 -927.120861 -1019.099826 -1115.602904 -1242.503150 -1273.493725 -1171.092501 -1004.902899 -811.529206 -568.597590 -193.658556 522.625618 1928.810135 4047.034180 6050.716687 7352.607244 8223.849401 9082.565169 10091.715566 11134.205935 12096.008157 13162.765555 14401.424041 15668.621041 16929.194995 18251.208401 19726.745876 21361.065504 22966.131381 24370.612366 25538.669643 26542.238700 27454.378580 28310.880459 29093.510295 29758.629736 30243.161777 30497.321640 30577.046561 30608.789996 9822.098590 10562.650305 10364.677929 7322.508807 14409.400332 16141.718673 17224.821004 22698.199114 19498.645528 8373.073579 24164.525904 25177.299952 26561.099943 28196.771087 28723.576260 27584.644816 29843.898982 30174.076133 29819.401339 30574.008055 11346.724727 17938.220643 9243.985660 20304.920010 10804.611149 15060.892428 12860.352066 19109.785449 21986.180615 21535.228062 23454.528594 27247.962098 29246.254894 29854.769383 29466.561748 27553.736227 29893.425005 31070.191533 30098.087904 31236.203014 16791.466622 15316.224635 10243.843268 22310.256042 12755.580875 21041.104743 20193.133569 30085.486593 26012.040381 25941.024803 27066.351885 27810.018691 25309.263750 29388.488334 30675.468023 30946.773595 30417.832399 30786.722313 31382.835364 30426.581325 21395.742044 26616.853752 18250.653893 21900.382177 20624.703864 27966.694294 18705.021776 25835.941076 25405.812089 28217.760984 28170.224238 30806.719657 29082.672511 30321.986594 28441.795755 30426.730558 31626.935848 30937.315004 31290.709064 31350.197773 22129.357332 28358.617768 11788.744947 17085.417156 27465.729589 24602.327933 18572.983224 24179.500410 24557.304891 17486.895782 30198.296095 26415.977446 25684.138363 30134.870869 29247.656265 30578.959490 29242.946226 30619.648594 30704.742348 31305.164569 12722.249395 21001.820795 14871.335316 15786.163254 16904.416673 21098.956327 22696.315296 30116.373676 23898.716162 25044.239485 26960.223902 30562.839062 24230.647214 22693.984043 29248.911089 30192.955828 28608.099731 30459.949714 30358.049913 31323.322888 23546.633945 19668.045627 24845.442258 18789.928792 15687.076344 23408.475119 29659.154341 25623.040099 27044.746126 22720.295810 28176.175295 27520.607721 29759.826635 30079.061914 27600.825475 27630.575844 30123.275529 30765.443985 31971.544035 31532.304974 23022.564901 18830.301307 18609.853216 22464.291253 21189.927766 20756.703018 14901.811141 20803.521462 24344.858527 21468.109697 29901.611334 28371.638573 29022.921951 28728.427789 29325.080698 29939.881812 28769.437625 30949.827690 29989.495575 32203.336756 17696.636451 15637.329902 20945.845926 12528.064216 23629.533250 17143.540353 22725.282517 18368.107809 19540.035684 23177.892620 19637.608464 23219.013455 23408.265674 27259.039300 28305.029600 26199.193511 28899.569763 26510.769506 32281.836496 31760.838998 13627.423868 21689.214121 27519.860533 12668.364083 20856.407902 24446.456575 19283.822933 19171.187775 21561.178889 28151.889697 26468.955099 25819.787618 26610.573160 26704.233595 25143.585748 27475.831333 29730.759460 30985.692924 27318.023853 31723.651932 20510.965085 24212.833773 18982.211334 20651.190312 25226.852910 26113.714887 20151.402045 23228.615536 25230.760794 23885.778420 24723.749979 30005.014942 25179.684153 29855.016155 27152.244338 29985.948952 25789.196872 30114.897334 31384.299299 30259.020996 9735.581218 9727.382721 14634.497887 23552.349308 19075.209678 21470.005369 15958.792656 13787.833136 22297.569172 29727.334122 26703.353471 25387.283782 30300.013202 24856.449924 24521.692730 29658.565296 30021.500003 29629.174624 30169.554360 31088.790478 13144.158277 13003.514808 14861.333363 16196.556946 20944.079854 18472.178507 18420.667821 24948.947472 23779.926766 20934.578886 18037.339760 25759.786684 20551.644954 28811.282656 27400.833163 26874.217700 30289.403165 30724.300920 31333.636742 31185.642789 6962.063102 10945.194184 19314.757275 11086.203211 16439.246985 21859.634812 18909.515779 21662.447996 18994.767664 25974.398398 24228.795085 28891.439464 30354.131521 27379.661879 30368.235780 27062.986485 31190.574939 30408.366994 30263.556738 31610.071900 12266.394796 7500.745549 12108.937913 15397.998820 17700.668695 22488.879040 19669.216699 25653.547081 22437.657333 19389.687599 26594.579338 23106.673548 28804.892423 28972.772684 29416.025629 27179.397328 27350.684633 32278.598372 30159.312152 31850.148173 3676.693996 6804.445552 4893.308738 8785.449457 19828.434829 24231.564301 14667.779656 13332.316663 21979.322806 18566.909823 23517.478121 21410.798186 30241.304211 28754.935655 31038.873035 28733.164263 25960.515562 29980.468884 29753.927178 32255.033000 8126.879011 9807.964895 6020.811159 10994.550571 14038.205607 12509.982233 19405.850925 22381.592427 20949.102718 21726.876279 16891.120347 26501.466953 25685.736659 29228.722163 23306.616135 29158.083835 28496.418498 30458.248269 31805.302811 32125.868556 10189.788522 8989.305302 6803.857769 8689.123478 12386.275781 11339.903370 12418.295407 15571.415948 17718.704280 17287.892650 26588.253449 25638.482355 24546.504410 23736.477765 27272.837435 27527.824094 28678.367124 31831.201090 30291.400913 31835.766622 9814.983216 7703.053491 6860.610744 11668.180372 9851.769857 11624.004797 10033.902090 13459.813886 22786.314689 24264.477546 27109.800818 23996.909400 31003.217670 26202.514001 29684.728840 29739.995817 31774.371311 29955.074815 29330.054433 30926.526623 6766.971288 8944.319830 6808.498959 8742.660249 9658.294444 9831.603087 9270.457482 21040.881963 18994.089926 16508.354752 22650.607096 20969.942807 28982.623419 29387.629013 29505.673896 30521.985627 31374.039226 31853.162983 31977.958454 31491.008422 3211.404805 12613.744992 9079.748116 7458.113139 9401.958169 13527.347036 15549.533885 18150.821265 15655.154404 21064.145370 25562.504676 22948.719965 27695.705104 29447.532861 28479.509124 27818.870035 28581.903453 29474.533491 30547.759536 32005.752886 13131.341955 2146.985660 7056.549718 7705.810942 11439.576160 11174.117637 13284.564077 15493.036939 14222.398474 17092.482841 26342.414812 25805.685034 25971.372919 26460.016076 29938.897681 24328.055824 26528.743867 28184.758849 32101.554493 32100.059642 10224.373841 7852.389442 11405.331613 7495.968451 11496.885818 10059.410435 12676.722433 13068.850423 17930.415242 20825.143646 19548.103076 26279.288359 24185.814735 28552.485038 22396.811753 29118.226831 30477.384464 31362.463761 30452.936883 32011.564955 1301.146220 8132.337532 8111.080349 7763.543436 10215.157608 7959.845501 16448.566285 14531.022925 12111.516879 24670.844733 24127.275913 26641.704356 27549.847414 27138.883070 30675.429438 31647.539311 30881.524965 31227.719172 30416.511597 31054.601303 10666.582379 9630.054823 7777.105841 8636.052437 15250.334637 11241.100051 11966.620846 16850.263833 16457.028812 19044.429928 18618.804727 23048.651858 20114.026856 20377.262589 28444.090526 25224.014153 30783.948628 29778.672844 29409.199323 29683.556980 8980.776018 7845.965138 9437.989445 6197.628120 13283.157882 11350.095562 12804.295182 14138.304789 17540.047366 18371.250979 17141.233505 18521.678003 25131.809746 24402.212387 18905.651272 26612.701440 26081.333173 29168.825821 28672.613742 29884.753212 8667.498992 8361.271591 11618.324124 8129.739846 13407.604132 12604.410788 10023.813625 15845.801460 17245.869092 22146.039217 16153.403385 21826.918336 17868.703285 24762.306304 25655.551729 27580.578011 27338.668683 29591.641864 29427.406794 8905.311259 7475.851130 8868.925094 6967.805607 9125.789758 13790.303512 10455.673632 14551.399452 20913.329637 19923.767466 22104.064210 25568.741873 23932.084364 22865.803214 25365.995191 27977.641760 27551.051481 28029.004219 29163.710806 11390.438191 8176.592845 10872.855524 7112.836960 12109.459065 10508.520815 9783.251437 12882.824205 14818.960528 16130.177725 22321.564264 15216.326585 23479.100948 20955.604444 26110.474660 27138.214598 27239.465738 27281.968807 28882.391323 22.136400 10878.628451 8966.186573 7920.139588 9971.364059 13558.214164 15641.864832 12316.951479 16923.098211 17148.796794 17247.401154 23343.940935 20515.580863 23765.112257 26162.181107 23633.011518 25453.629486 27900.793515 28522.269201 8723.837046 8336.071643 11075.142987 11115.314865 8381.124999 8705.411977 14794.716390 13638.188455 13486.530930 11517.720101 19100.821386 17628.011094 18924.108040 21757.931639 20430.924020 23755.609161 24519.884931 27303.396221 9411.747697 9282.584588 8321.161854 9588.435018 12616.713911 10617.507928 12604.175489 11969.942713 17002.160245 15464.734440 15274.757262 20723.330839 20906.869848 22510.649934 24926.732294 22709.001663 26319.874292 26764.097861 14873.147858 9160.409710 9706.735187 12738.796672 9259.467862 12728.163532 11543.248072 13421.825222 20175.538978 14760.243826 19097.188006 20917.557189 19062.083011 22705.494575 23887.926796 22462.112887 28282.947189 13872.753558 8303.450137 8798.468890 10792.151930 14336.255481 11387.139740 21551.876617 11607.560382 9873.636378 19075.085574 17739.533319 22896.868047 25784.664941 24302.207527 28364.053232 27055.844226 26355.723435 10142.417219 11031.156862 9692.226472 9893.972557 17501.547463 21114.196628 18581.921478 11735.940202 13350.526752 22038.894921 17995.313512 20834.859963 24054.147606 26596.183252 20672.232316 25365.652731 25922.252996 26008.344240 -634.136202 9377.408182 17392.566092 8264.506751 10655.923369 10413.967324 16088.178148 20613.810401 21952.757238 22624.099664 21878.390308 21126.632380 23848.111191 21598.910869 23493.877542 25577.598833 9368.038033 9907.609712 11973.885791 11273.737938 13556.986102 14864.649631 13989.889261 18870.897257 15854.372518 14227.043432 21672.278288 21843.829266 24392.813336 25060.550851 19698.370766 25122.772204 10104.003255 11271.379983 9925.895885 12339.070705 19600.584080 15619.741754 18115.628317 18723.947592 14553.881374 16762.361291 21602.412376 21586.816760 23511.057846 25086.242423 25203.522494 25174.263616 10216.418678 9688.622386 10809.472440 13783.404878 12601.284399 12323.877954 18039.503551 9954.543528 12935.390403 18253.830756 19228.254176 23711.356957 20046.143211 22870.104889 24512.033885 9739.765969 10268.414837 11194.162140 10434.545314 16439.188394 9563.907942 11149.840791 16964.055050 17519.914181 22530.108386 22249.127359 23266.661772 21805.678133 15411.535196 23760.160583 11142.897507 10802.602093 11257.319535 10284.043898 12727.123030 14538.631276 10487.440273 15642.356193 16403.999888 14327.262755 22654.088743 18476.497266 24716.525399 19610.526751 22809.285250 13190.146408 11831.219560 12179.634275 9648.206541 13216.616602 10458.184611 13804.577078 15511.445312 15875.731042 13550.760565 21022.027138 22289.139633 23743.645672 22190.790947 8074.384657 11572.188575 10786.122543 12351.206442 17425.994342 13114.532259 14863.142587 15123.203789 16570.588397 18837.815588 20706.410837 19378.387772 23025.879312 22047.156664 2921.426804 8483.281813 11176.955447 11485.999494 16419.444190 10514.029082 18046.188673 18873.997824 12775.527741 15956.807580 21679.651630 21780.008610 17302.902761 21513.705001 9615.526402 17058.998549 9847.714104 13083.306214 18059.596004 15374.761438 20464.008132 18803.394539 20902.349755 17468.042769 19553.945403 21118.529297 21127.952632 12477.708665 11006.851668 10714.325683 15614.441700 12692.522226 17583.463858 11934.645552 16454.096500 19924.904458 18899.079666 20731.461426 22000.508647 21105.244362 10026.541361 13305.501179 17918.045439 12307.500763 15388.919252 15608.326554 17170.665737 11775.280905 19850.433303 17073.211076 19129.138311 20071.988764 20719.025081 9083.157308 10469.518337 11536.889071 13676.759344 8001.089351 16328.834005 14060.008997 19477.915749 18665.804299 20273.126487 18394.784180 20145.607762 -936.595229 7606.520077 10862.825932 12198.780873 13134.732245 12057.261036 16206.371215 20690.083853 17478.228181 21919.045994 21056.494767 19956.915714 11178.883286 10593.489673 11185.030742 13539.699817 9802.068624 14169.306011 15902.693056 15454.562841 20493.101533 20660.010018 17966.152186 19928.735780 19927.818683 1225.494676 11226.468690 14907.180138 14781.923276 13793.903080 14482.257941 11460.052127 19574.218782 16119.868457 13901.135071 18755.585073 9759.786308 10030.491068 6056.875333 10781.095078 15878.425640 12647.431743 12420.033083 10425.345016 22201.141783 6650.588140 17437.170739 5921.822755 10764.669764 10112.917957 10898.680602 9648.556874 14644.402144 14359.996405 18333.844488 16535.767183 18891.248364 16719.785265 7413.609832 12488.636387 11981.668239 10017.991481 13078.818296 13393.000159 10755.620306 15273.051402 14447.973958 16353.388191 5333.968391 6023.055810 10308.417984 13848.683302 12834.760480 13344.350027 18806.544477 19173.476083 19249.329010 15181.618215 2774.950980 6374.887983 11628.451200 11363.094561 10287.405257 14470.828640 11025.460002 17598.289724 19649.651767 14525.906328 9331.027948 12997.060288 13563.487408 10715.705908 13903.282532 13428.709660 13816.354352 15440.005725 13940.889251 4172.082149 3829.011637 10672.786182 10545.195975 7606.028336 14671.752866 14871.605629 9332.549563 14088.778998 3134.204242 10372.151347 11112.083875 10781.631961 13753.402549 13608.296342 16578.747980 16906.088881 12527.583984 1712.857985 5837.192485 -1582.939969 12947.527442 5129.592826 12785.956493 15216.573799 19824.967460 -698.764400 3189.026448 10292.363741 7516.269217 14266.300975 11468.197003 3978.260881 8095.162168 2675.148113 7075.485932 8569.782031 11579.862991 10545.739260 4115.071121 17905.834563 10030.081943 2942.760333 1601.349314 10535.468133 8481.616482 12297.849576 12051.525627 10968.786306 6791.068419 7869.964330 4500.743417 9910.511703 12376.018909 3237.209297 4329.031511 5405.158548 6965.515905 8231.652935 2234.560950 14178.797483 11313.069573 4286.279859 5006.929058 7286.998996 8958.931249 10125.743764 2132.109551 2853.942505 11762.141498 2781.260958 4423.333628 5573.789040 10282.327062 11197.376543 13894.376065 8514.126950 2628.588926 2950.575630 7753.469643 6690.750648 3875.251064 2810.498582 10994.934113 9164.901675 13766.931735 1450.283943 7733.758098 8038.443373 11883.422416 5290.532468 14665.405961 919.481051 8731.128469 3590.685285 2644.264545 2061.380023 6045.994953 3253.843708 3362.395339 12766.161557 9967.605493 549.127959 -2744.992012 5033.213305 2841.533541 7535.617830 6051.348656 -3515.817805 9889.784798 10984.851306 11909.663350 -4130.717055 10388.287897 7940.518623 -1256.811837 4276.293776 7430.064188 224.223439 3746.408952 11702.789233 2787.046883 -2210.679234 6433.454370 -21.650506 -3.452307 5357.139806 6470.263585 21.081925 623.171878 4631.373632 4815.166080 8275.008236 7773.424977 8719.897678 1563.495018 7838.239377 10955.653060 -100.070403 9675.446660 7570.448906 10074.255486 12688.723509 7964.392232 14668.562147 7637.848685 12049.901749 11846.407909 8778.652945 16264.217156 8912.198230 10847.264826 18274.357159 15551.420941 9849.202366 12306.858618 10833.618070 12475.120427 13331.464388 5407.649704 8432.100382 13475.223671 19229.471863 13947.888893 17900.644748 19464.623501 12218.955042 13881.035622 9937.671057 9924.756907 14593.486651 12670.826714 10316.027010 7468.607369 8311.706102 6246.712360 7534.142655 10992.284045 16782.649197 8119.348415 9155.775027 17676.935338 19992.729558 16072.652097 9244.099936 8090.189050 16869.736399 16765.921117 8320.772646 8631.380345 7972.313364 9112.583528 11209.888875 12732.424174 14232.809010 17565.408252 16008.039909 12497.686884 14326.149085 10488.185834 15802.425564 11943.952215 23088.177379 7888.834390 10131.087387 7900.641226 11114.775070 8081.557622 8015.838523 12905.916152 9929.853136 13652.584294 13634.136505 15404.877537 11138.341005 18600.717789 19483.719994 14601.677594 8336.673379 7474.334374 9067.143113 7743.438317 8134.860032 9481.584369 8074.459283 16474.615912 11581.370091 16131.389824 15640.815132 14913.354544 15853.485464 17335.143959 20940.352030 9345.092949 8290.427513 9148.071955 13431.176450 9139.853890 10034.318546 13282.379369 11543.527218 17480.084320 14369.401297 10498.744129 11513.442290 13889.515903 17136.660384 22701.904806 7771.065334 8279.456166 8201.073996 8175.834287 8376.144080 11229.231096 14031.882038 8370.421920 11749.403788 20349.561765 15583.525078 14683.801538 11498.436955 14427.134788 11712.918540 7584.091836 9228.246968 8673.432466 9094.994771 9407.155256 15206.752852 12859.959821 13240.391845 7559.533925 10584.177078 15743.499798 16774.552662 13984.993927 21550.981875 21655.359614 6107.314709 7472.885736 9456.669981 8227.492961 8916.793728 8769.370895 7408.791128 12079.675778 16832.876688 14832.177955 10673.506923 11057.251137 14322.302209 10427.583083 20030.823216 4289.287461 7792.936944 9832.501608 8489.418026 9074.031433 14558.736424 9966.488382 17802.886923 9302.255586 8231.842191 9361.086979 17032.319139 14767.633109 9854.355033 13053.635127 8114.188191 9541.641718 8035.785370 8444.390873 8585.344831 8437.263141 8979.197013 9660.724635 8023.245889 6871.621509 8675.934181 11644.933325 8654.923680 8508.755689 11499.076458 8719.428248 8802.743246 7839.590362 8124.316420 6700.868899 8752.919943 9282.481725 8908.472191 10013.924109 12717.051372 11007.698446 6642.114444 10244.897575 10700.099559 10482.368022
</DataArray>
<DataArray type="Float64" Name="Velocity" NumberOfComponents="3" format="ascii">