<VTKFile type="PolyData">
<PolyData>
<Piece NumberOfPoints="2186" NumberOfVerts="2186" NumberOfLines="0" NumberOfStrips="0" NumberOfPolys="0">
<PointData>
<DataArray type="Float64" Name="Pressure" format="ascii">
 25585.784830 25814.732198 25696.966599 25807.874346 25661.781737 25700.559652 26331.502149 26866.681244 26936.903797 26585.350832 26539.512951 26483.475462 26402.169409 25978.484131 26180.825945 27089.683240 28103.199754 28404.179237 27733.041294 26795.927252 26304.387538 26455.127941 26638.399373 26415.953634 26019.861769 25707.053675 26286.710524 26006.569220 25839.241478 25755.593350 25707.867703 26000.190778 26703.241642 27444.823056 27631.251005 27297.578255 27131.286770 27396.275831 27562.156747 27136.769098 26475.328503 26254.799566 26865.028518 27889.950619 28822.817950 29002.227314 28423.503411 27724.500132 27323.008050 27097.637715 26860.418053 26561.430143 25940.460856 25614.134399 26317.817789 26397.968684 26409.877413 26306.591500 26244.084183 26192.883839 26272.191604 26511.678185 26739.057081 26721.260363 26511.730706 26407.353326 26561.038219 26825.235958 26960.406258 27016.415936 27127.300872 27284.320711 27494.240504 27718.914210 27830.051718 27715.258697 27535.325239 27328.570880 26926.208298 26455.903278 26050.084971 25642.752065 25451.179036 25707.053675 25519.724306 25275.794218 25504.398064 25210.207510 24149.572862 23234.805835 22993.370929 22690.777976 22272.902988 21731.690238 21576.629592 21738.313784 21667.841220 21470.752679 21308.328172 20936.517096 20644.676977 20263.346044 19988.173293 19662.424306 19289.037931 18854.182430 17993.313292 17397.184830 17042.134458 16757.358645 16533.526808 16372.617264 16412.859648 16150.363542 15704.431736 15465.885921 15337.166329 15233.768650 15031.813543 14890.318267 14705.857528 14219.684253 13748.146716 13471.039778 13030.692265 12420.868874 12277.133657 12388.164526 12132.620227 11604.916530 11101.146974 10758.020279 10324.602272 10291.635540 10083.094511 9566.087041 9192.692689 8727.389123 8335.423133 8357.551138 8300.456612 8065.076302 7660.768799 7586.865377 7459.057040 7063.539781 6490.498214 5900.313992 5518.006951 5574.640077 4859.306638 4541.995708 4383.184878 4374.374190 4295.547513 4168.992584 3808.452130 3482.960654 3264.928096 3117.832674 2989.295755 2793.649398 2518.860197 2346.827047 25614.134399 25617.073857 25775.512133 25561.241293 24956.730088 24321.665880 23775.567874 23278.555833 22800.127470 22384.013883 22041.515464 21870.697970 21931.800217 21956.231880 21771.046735 21531.820868 21175.151938 20719.169081 20346.894159 20114.654008 19863.975438 19453.498027 18860.518862 18212.331156 17680.505092 17217.382543 16838.345306 16598.837513 16421.929743 16377.907126 16148.021313 15807.633715 15538.432134 15328.875337 15093.762986 14892.959256 14719.889954 14491.835651 14172.888106 13819.512028 13455.075757 12954.407930 12475.822565 12346.383821 12259.451742 11898.423338 11426.612936 11020.316343 10660.400417 10339.317544 10148.885587 9916.526019 9447.244556 8948.382962 8570.047602 8445.693090 8422.954023 8280.633011 8003.541137 7835.594785 7734.654087 7420.398359 6846.106209 6306.300730 5947.451373 5535.001359 5145.618543 4950.626239 4679.451826 4458.905754 4430.759247 4312.792562 3992.064917 3680.898390 3454.327794 3260.413473 3085.141300 2911.595371 2709.472054 2491.751652 2395.810655 25451.179036 25432.374840 25469.414487 25239.532982 24746.846393 24277.447915 23879.318444 23572.825509 23349.369937 23049.734426 22636.593491 22225.295681 21910.846396 21703.680791 21549.737008 21428.251178 21274.040533 20925.702011 20449.218315 19983.574980 19608.567484 19308.298406 18936.263091 18465.103108 17944.169493 17444.305606 17035.319705 16744.963849 16523.760080 16320.153188 16096.696633 15844.216942 15618.764707 15452.705453 15283.645885 15093.741110 14870.008294 14585.692377 14252.177309 13880.414570 13492.245731 13098.636687 12728.097299 12459.474698 12272.711758 12028.730217 11670.222759 11250.101491 10827.259397 10463.679082 10176.677283 9895.269961 9538.844382 9147.448365 8828.413688 8626.784302 8510.616717 8400.756483 8243.847096 8064.322807 7870.484101 7596.685567 7197.210797 6723.599639 6274.810978 5859.125844 5452.397842 5107.250293 4827.595765 4589.806215 4411.158285 4262.085183 4073.769162 3841.493689 3609.268072 3398.647940 3205.245579 3020.258280 2834.163109 2644.044314 2482.111555 2425.393123 2346.827047 2183.936984 1925.344510 1729.707826 1603.947576 1504.334397 1399.651556 1316.595397 1252.937970 1212.939179 1195.798041 1185.341890 1176.984839 1166.597528 1155.038104 1142.656207 1129.615113 1116.028588 1101.991954 1087.587556 1072.881096 1057.904357 1042.595077 1026.519308 1008.917875 998.673353 2395.810655 2318.954095 2176.297416 1972.564478 1784.306222 1638.485351 1528.769718 1435.819889 1351.967382 1283.295537 1233.905313 1206.364756 1191.865915 1182.249297 1172.233782 1161.384655 1149.790719 1137.547311 1124.747449 1111.478595 1097.821474 1083.849144 1069.626500 1055.210715 1040.658652 1026.082186 1012.087508 1002.566236 998.585663 2425.393123 2387.234771 2307.448751 2164.254435 1979.545951 1800.212095 1651.879858 1536.947400 1442.225571 1359.366271 1291.267881 1242.223203 1211.953462 1194.847920 1183.104797 1172.330099 1161.249043 1149.561714 1137.260687 1124.411849 1111.096169 1097.393971 1083.381759 1069.136329 1054.753181 1040.405537 1026.515212 1014.063518 1004.582477 999.838592 998.482151 998.673353 988.269745 970.075042 953.359876 937.384995 921.639608 905.979682 890.349498 874.720602 859.073304 843.391404 827.660793 811.869201 796.006242 780.063514 764.034689 747.915557 731.704050 715.400222 699.006213 682.526190 665.966266 649.334415 632.640376 615.895547 599.112883 582.306795 565.493045 548.688653 531.911802 515.181761 498.518807 481.944161 465.479934 449.149080 432.975363 416.983333 401.198310 385.646384 370.354417 355.350057 340.661766 326.318842 312.351463 298.790724 285.668689 273.018437 260.874121 249.271021 238.245598 227.835554 218.079881 209.018918 200.694391 193.149461 186.428759 180.578411 175.646064 171.680896 168.733618 166.856468 166.103188 166.528998 168.190551 171.145880 175.454330 181.176485 188.374073 197.109871 207.447597 219.451792 233.187695 248.721122 266.118332 285.445898 306.770586 330.159236 355.678658 383.395539 413.376380 445.687453 480.394793 517.564229 557.261466 599.552219 644.502408 692.178431 742.647516 795.978170 852.240745 911.508179 973.857063 1039.369547 1108.137690 1180.275589 1255.956763 1335.536074 1419.944592 1512.436489 1618.365080 1681.161271 998.585663 994.377025 983.823375 968.639527 952.964969 937.265445 921.602820 905.968424 890.346563 874.720720 859.074825 843.393775 827.663790 811.872694 796.010128 780.067694 764.039064 747.920030 731.708522 715.404599 699.010402 682.530101 665.969815 649.337521 632.642962 615.897542 599.114220 582.307413 565.492886 548.687662 531.909930 515.178961 498.515036 481.939378 465.474099 449.142156 432.967314 416.974122 401.187903 385.634744 370.341508 355.335842 340.646205 326.301895 312.333087 298.770875 285.647320 272.995499 260.849562 249.244787 238.217632 227.805796 218.048271 208.985392 200.658885 193.111908 186.389090 180.536558 175.601958 171.634469 168.684801 166.805194 166.049392 166.472617 168.131525 171.084151 175.389847 181.109198 188.303940 197.036854 207.371664 219.372917 233.105859 248.636313 266.030542 285.355129 306.676844 330.062533 355.579010 383.292968 413.270909 445.579106 480.283594 517.450200 557.144623 599.432569 644.379947 692.053139 742.519347 795.847036 852.106468 911.370347 973.714569 1039.219096 1107.968923 1180.055123 1255.575524 1334.631313 1417.293115 1503.213241 1589.476885 1650.395346 1674.362641 998.482151 997.057930 991.684393 981.121540 967.585851 952.609490 937.154074 921.568767 905.957940 890.342825 874.718554 859.072676 843.391211 827.660734 811.869183 796.006236 780.063513 764.034688 747.915557 731.704050 715.400222 699.006213 682.526190 665.966266 649.334415 632.640376 615.895547 599.112883 582.306795 565.493045 548.688653 531.911802 515.181761 498.518807 481.944161 465.479934 449.149080 432.975363 416.983333 401.198310 385.646384 370.354417 355.350057 340.661766 326.318842 312.351463 298.790724 285.668689 273.018437 260.874121 249.271021 238.245598 227.835554 218.079881 209.018918 200.694391 193.149461 186.428759 180.578411 175.646064 171.680896 168.733618 166.856468 166.103188 166.528998 168.190551 171.145880 175.454330 181.176485 188.374073 197.109871 207.447597 219.451792 233.187695 248.721122 266.118332 285.445898 306.770586 330.159236 355.678658 383.395539 413.376380 445.687453 480.394793 517.564229 557.261466 599.552218 644.502405 692.178421 742.647482 795.978057 852.240376 911.506972 973.853126 1039.356697 1108.095747 1180.138676 1255.509839 1334.076473 1415.190766 1496.660466 1572.384944 1632.403796 1662.752488 1670.629361 1681.161271 1757.987909 1898.013406 2033.676097 2169.660318 2309.818616 2455.397810 2607.046699 2765.251781 2930.475823 3103.203161 3283.956818 3473.305529 3671.863925 3880.282395 4099.217163 4329.263482 4570.825948 4823.893554 5087.692019 5360.216670 5637.738905 5914.539631 6195.498414 6450.026217 6754.214265 7392.225249 7841.985161 8470.868466 9782.942247 10511.138804 11148.340068 12332.717940 13350.984205 14178.795431 14762.247339 15359.453913 16553.235167 17694.925547 18637.914850 19582.227610 20499.395118 21302.436509 22104.538189 22847.731939 23514.275537 24233.080124 25014.623648 25718.585293 25821.360995 25585.784830 1674.362641 1707.535787 1788.562539 1907.957652 2036.226138 2170.259717 2309.823856 2455.212241 2606.790800 2764.961337 2930.160641 3102.864943 3283.594701 3472.917936 3671.449470 3879.840859 4098.751130 4328.781193 4570.345972 4823.451940 5087.352818 5360.085534 5637.930553 5914.796017 6189.460112 6470.280864 6787.115604 7318.023311 7830.218941 8466.265837 9562.778654 10373.727725 11044.880941 12082.687328 13045.618022 13880.828576 14619.883176 15321.014280 16408.620575 17531.848617 18572.771275 19584.443334 20547.353437 21406.424389 22116.980629 22737.238408 23411.085396 24259.612321 25031.354079 25419.488472 25502.962840 25842.759570 26286.710524 1670.629361 1682.606307 1724.969356 1807.541124 1915.565540 2038.967293 2171.292575 2310.320450 2455.552194 2607.094195 2765.266395 2930.480320 3103.204542 3283.957237 3473.305643 3671.863925 3880.282326 4099.217053 4329.263562 4570.827510 4823.902264 5087.729998 5360.364231 5638.268285 5916.404778 6191.691537 6484.885566 6841.906729 7302.557661 7853.275255 8557.919637 9423.457791 10262.713745 11093.422178 12036.810859 12945.409553 13754.909575 14523.996237 15369.065435 16398.806823 17466.543943 18512.971137 19528.856878 20485.911729 21352.803649 22114.700028 22820.375988 23505.681237 24163.265033 24719.647253 25159.460705 25625.682754 26140.697241 26353.030781 26317.817789 10560.360606 10624.151525 12483.859721 13122.367856 14446.302922 14983.997747 14984.012217 19611.067759 16931.314968 14101.804962 20599.475605 20950.823665 22011.256798 23232.228184 23354.907897 22825.109320 23968.770274 24278.444063 25857.490973 26108.137765 13003.115718 17743.822172 12979.455428 18207.083717 15788.146886 14883.167581 15155.540932 18557.286878 19189.588214 19027.166639 19762.529292 22327.880750 23744.696456 24078.816453 23724.445601 22023.387898 25299.113715 25650.943443 26139.461810 26148.860470 16012.640966 17784.306244 13395.205924 20004.138329 14999.726310 17791.826437 17786.981903 22877.826513 21010.601246 21519.252753 22266.391826 22809.848352 21364.517876 23136.431388 24136.213381 23706.801455 25522.112891 24003.368306 26290.504161 25467.837448 19322.533978 21012.676582 15888.309598 17279.980816 17555.954473 23138.857625 16122.344979 21378.094998 21497.197071 22980.262821 22832.950999 25644.464402 23707.182613 22818.635334 22536.012804 26102.138244 25061.099193 23659.615426 24635.825843 24852.091986 20672.817596 23003.138714 16934.417107 17586.935188 22518.806227 20230.958528 16888.787610 21584.978941 20679.188941 16761.356609 22792.314655 21771.119734 22335.074544 22423.452044 22932.250118 24611.211097 23150.861893 21676.275558 21960.574335 24144.252427 13465.292762 19163.869259 14736.640532 14444.592654 16822.319802 18080.350722 20106.611331 23451.389580 19728.768334 20896.765318 22095.939346 23724.001629 18788.862388 19372.568558 23503.566164 23754.546775 23339.569109 22594.207186 22397.598517 24541.194993 20616.641193 16893.010646 19304.392937 18888.274683 15062.208287 22134.942788 22979.350845 22442.244513 21567.694067 17093.168663 22292.416536 22330.112261 23483.704518 22882.869082 22353.097732 22347.479302 24003.865813 25333.703343 25556.203930 25284.301763 18405.567505 14260.103582 15778.761353 18134.646643 18174.001342 15753.248907 17019.170416 20283.770992 21639.464389 17952.017287 23288.356478 20017.993747 23304.878279 23379.955515 23372.073410 23878.981333 23533.461839 23581.294409 22957.127855 25721.043096 15092.836802 14588.679650 16082.749398 13318.812244 18264.016358 15093.737969 19209.032537 15836.760023 15956.800252 17245.760713 16496.778356 19254.565769 20571.952229 22309.974515 22394.992767 20309.545670 23284.305402 20284.522236 25334.495498 25000.624011 14805.388222 16029.929895 20607.791666 15548.824212 15836.363305 17611.030570 14612.709717 14834.304342 16473.220711 22248.465156 20176.860878 19176.698861 21493.740797 21696.233862 20381.538385 21528.942597 22953.663669 23440.990583 21590.500184 25091.444150 18506.009420 18367.450887 15411.738241 17339.014920 18330.072718 20759.897162 16657.854753 16768.789768 18981.710039 19084.997958 17067.409476 23927.930605 20302.308152 22953.763855 21803.991461 23743.746515 21270.863913 23265.276479 25402.868143 23080.959878 12979.253372 13220.370703 15234.392812 17730.707332 15045.113095 17134.843596 15998.449345 14248.262093 15825.617043 24310.306857 20308.421917 16495.757242 20382.100450 19041.174901 18930.531221 24405.904640 23557.112597 21270.189294 23470.205424 25408.880021 15042.911568 13934.536678 14677.038816 16372.077311 16850.902237 14643.526964 15638.369947 17558.242317 16687.096920 16617.438509 14599.043367 22000.517605 15960.907364 21307.835618 21953.667289 20362.922313 24757.384099 25338.267552 25906.803322 25609.613654 13302.312729 13360.480639 16243.348874 13596.446217 15824.558394 17795.949737 15716.076656 17497.462390 14120.643458 19314.875039 18434.658934 19340.938163 24766.743033 21383.863638 21426.105333 23014.432081 25845.037915 25978.543221 24563.569531 26318.270425 17034.284562 13172.728915 13464.580979 14218.726378 15828.226250 17979.239520 14782.675832 18461.180406 19392.268857 17826.181223 20762.485913 17901.709172 22076.252598 24382.312563 24325.700536 17402.534968 20653.042786 26618.928170 24529.453479 26896.745126 12535.256315 13326.073166 13420.748084 13333.678296 16782.573575 19475.913691 14397.375789 13733.522970 17360.021473 14381.386171 17598.571872 16417.483851 24007.280287 23510.196814 25212.696535 23379.476403 20148.412682 24647.662954 22349.160890 26515.934981 17609.524553 13887.714100 13372.379285 13339.915640 15277.005274 14539.302268 15097.392194 17415.174976 17639.761986 15671.211036 14984.884233 22188.376426 19614.677348 23887.084327 18384.435607 24291.322743 19326.326871 22853.282904 25613.487384 26574.701417 13513.726386 12795.902738 12614.882542 13500.338948 13757.335279 13983.589962 15332.991162 14037.849152 15656.724659 15452.190858 22043.520753 16777.847767 16464.687746 16475.065315 23301.611579 19399.097776 22461.228929 25850.899978 23840.230826 25442.780242 10227.811732 12792.634875 13458.745287 13863.895432 13118.639325 13818.053321 14167.455034 15109.378263 19389.312778 21049.065075 18779.585169 19977.240709 25575.409593 19192.033189 23342.505587 23554.799000 25979.828355 23241.423588 23156.287046 24617.068382 12744.275248 12883.853848 12682.911799 13435.662742 13956.438590 13396.376637 13130.327731 19546.415528 16046.023419 15282.078110 19788.015403 17802.826463 24062.622505 23306.242589 24576.728658 23489.310619 24864.433743 25586.929312 25178.151909 25786.884930 10370.790106 13494.209590 13139.442366 13449.873926 13471.530718 13739.788438 14130.408587 14710.328074 15762.119542 18405.034955 17468.390489 16728.346751 18786.790425 23629.518783 18636.710651 20840.855995 23335.449994 23917.073711 23604.429887 25560.998981 8734.739312 13462.904882 13011.622887 13403.903475 15747.094078 13819.019117 14580.810859 15939.951886 14284.332919 14471.232258 21668.407209 24544.151901 21945.761576 22674.209818 22929.809287 18458.444711 22801.775400 21522.527520 26084.457238 25984.319617 15304.161886 13397.601507 16069.986151 13455.040562 14153.108941 13544.314178 14844.503024 14424.414833 18578.825019 18672.961573 17881.994052 21900.868425 18581.611714 23652.333501 15586.157413 24752.446078 23799.257155 25791.593019 24940.958810 26010.214694 12877.216331 13550.700456 12985.633668 13568.899631 14300.058200 13642.218354 17123.008717 15176.264215 14419.846374 18300.377991 21120.285139 20494.829384 21561.605463 22700.518322 24500.725330 23924.677284 23346.608398 24781.743615 23373.220893 25675.288522 16603.560622 14093.665120 12972.637131 13663.142387 14832.670044 13997.636325 14221.643874 17158.361807 14485.158153 14906.798970 15092.953229 20632.506359 15843.633988 17000.791434 22661.697714 24517.081629 24849.432685 23454.965555 23772.855159 24417.504586 13430.790065 12910.894939 14109.020812 12695.778607 14095.182951 13217.064671 13958.187367 15573.153598 14897.298964 18071.891756 17118.071662 18630.369650 22575.735689 20862.301177 16330.068939 23102.633721 23551.879197 23384.643101 24905.053903 25674.353920 7190.402011 13209.337829 15301.913726 13936.497849 15510.512301 15831.799946 13914.998169 13888.169834 14342.689551 17491.745361 16397.489235 18601.843841 18093.002981 20414.207834 24253.943174 23039.225237 23852.518794 23541.908300 24434.988330 13178.647064 12627.561087 12777.696752 12685.339616 14616.318785 14961.056982 13854.121445 16241.615518 19400.535901 15562.641298 17284.450991 19517.538889 23544.297872 16752.771381 22950.921349 24989.246405 24491.722420 22273.514242 24509.678476 12845.840212 12915.805669 14001.894533 12970.367698 14645.860838 14896.909828 13290.834887 15251.225954 16738.302776 17738.883522 19201.066764 17713.145228 21570.370258 16039.265532 22591.136737 25016.001645 22794.919779 24218.238555 24143.596654 10426.277858 13812.219576 12908.704481 12769.184740 14835.072156 13391.891214 17431.409964 16434.347165 16477.625835 19208.077431 18143.130684 17127.529513 18476.266963 19276.329453 20306.395802 20061.105794 22106.542640 22633.176775 23601.608255 13041.307712 12532.499793 14219.369120 14108.350726 13221.240719 13594.915182 14979.416962 15353.104258 14272.249764 14962.059739 17490.203883 14463.773505 20326.795602 18380.551322 18219.194363 22788.432362 23397.035712 23004.755303 11966.454003 13487.708625 12983.344656 13342.440606 14396.805615 13661.750762 15859.543853 15454.760649 18854.218797 16060.174907 17219.193114 21215.353941 19458.397142 22520.447503 22798.573053 23487.705385 22422.337785 22964.531020 11168.978359 13314.015592 13344.362069 15499.927339 12878.000164 17101.657257 13745.616883 16445.527539 15222.088381 18519.582245 20359.766492 21208.819866 18400.539220 22881.935976 17585.874133 23682.414472 23762.034247 12030.305946 12889.485910 13470.119940 13417.218212 14205.773509 14657.894347 19414.693555 13651.056106 14431.631117 18003.284048 15592.409671 20225.460657 24306.845960 21264.740960 19189.232063 21693.614578 22565.109872 13262.380925 12766.330054 14050.615484 12865.174162 19996.728263 22024.153674 16721.137902 17095.193531 16691.462741 22920.848020 15720.023190 22931.939399 21537.220089 23706.340601 21990.127274 21165.806316 21542.338989 21543.053776 12747.805321 14012.465885 19229.903698 13016.641254 13967.657062 13730.131553 14867.251873 16427.518770 19990.561957 20371.380251 23206.726825 20265.125426 22682.661100 21461.137730 22506.978698 21312.777754 13495.286963 12682.351609 15776.664915 13806.446710 14212.749819 19345.823568 15914.948797 19638.006209 20614.624027 14668.037355 21490.433318 21850.476107 22569.486970 20940.151511 15709.064984 20433.410391 13173.792343 13040.854148 12869.608366 15381.618891 22479.355890 19973.976888 19644.904478 17354.472853 19768.650548 16753.871997 17495.077891 22206.155062 21396.106419 22445.558450 22989.126847 20971.031517 13211.320396 12935.050903 13514.227081 18864.504955 14598.629096 14412.203138 20643.596923 14479.230633 15088.695554 21902.042709 19044.812903 22759.118007 21849.829886 22516.452037 20763.852751 11529.020686 13272.906098 13936.569875 13543.972798 16659.789036 13788.486886 15971.957352 18084.787062 21781.538716 20847.598314 20025.446845 22816.949422 20447.610583 17477.724434 20550.982028 13103.923015 9552.928470 13330.065040 13488.682017 15266.908547 16325.829971 13614.820765 18599.915130 23290.026151 16426.139817 22841.759940 17337.154106 22491.499165 21701.505891 20278.137707 12122.722012 13432.653822 12744.740011 13148.753277 15872.473653 15028.209773 15997.710452 17275.823054 16235.657148 16578.722599 22062.724171 22661.690914 21473.561175 19908.155754 14646.179149 12945.478920 14569.866857 20011.023523 18740.950241 15304.867238 13208.833266 17544.783788 18302.519361 21597.057333 20919.409080 16539.508399 20584.734540 19464.206057 10582.983608 7606.819589 14230.095467 14550.901490 19890.215186 13609.340808 20107.766595 17322.214703 14859.430422 15907.398988 20255.973855 20199.274372 17859.063315 18976.855953 8664.540401 17979.796943 13411.545600 16613.062600 19950.714839 18005.274671 23296.458438 16299.660450 19322.792497 18936.264963 22216.405300 18825.785084 18535.288552 17708.855532 13604.487224 13477.495859 16806.449238 12315.449790 18818.987528 12978.170783 19606.029507 20111.467436 23443.386377 21342.031270 20934.614146 17974.854333 12560.056152 15507.600936 20735.984062 15910.929685 17766.789559 19923.046576 19759.317869 13729.733408 20689.616662 19318.509646 21156.713564 17261.419267 17656.229925 15275.452705 13437.435027 13087.758929 18026.711744 12926.969867 18709.324895 14134.454483 17187.317587 19472.969597 18078.380792 16249.084724 17993.085791 12966.561002 12952.493188 14281.265281 11402.119534 12167.674233 15006.268452 17306.493515 21860.503390 15538.692689 19698.890466 18410.886290 16654.765930 13086.141638 12941.350675 13367.398362 19997.553818 13280.447309 19996.226361 21024.919206 16889.757677 19216.470725 20920.452999 19553.089695 16652.572506 16654.182682 6396.817692 16346.921349 15395.546717 18903.227415 15850.319478 14703.770668 16142.971112 22533.467332 20036.220765 18908.087377 21091.967451 16312.228345 9769.570593 12455.319724 13889.042796 20440.797507 19909.327031 18058.012368 10209.435265 22842.611494 13083.465808 16241.676219 8576.252277 13179.028659 13661.361821 13821.502302 8946.902977 19781.776894 16269.883521 20627.987740 15886.741482 18850.146977 16129.319888 11188.426597 16993.038733 13023.539741 15790.101171 17139.416380 13489.448473 16345.580909 18988.778056 17557.359904 15491.654322 14618.045947 15286.671197 13414.363940 17464.442408 17737.529742 17725.975376 16700.970261 22048.140446 22456.498377 17891.230418 1300.028333 7796.963009 4174.444269 17465.564410 13618.073117 18154.293226 14397.747444 21916.206769 19278.710735 15407.428806 4055.393113 15467.022574 15071.138376 15028.828816 18996.914503 16564.777114 19195.669565 19386.991133 15325.920892 9453.366879 10208.789209 15897.171560 13925.957424 15192.508280 19902.960393 17241.294418 14305.426189 15340.715027 9988.682594 10689.758417 15314.730472 17404.386754 19727.660029 18024.198972 20465.099624 19597.924016 14849.349202 12419.450165 15411.999958 14975.814064 15483.741247 15543.383912 16162.496745 15387.300128 22271.302955 4724.613014 10201.936798 9949.295485 14987.373854 19624.154148 16205.908638 12487.305747 16578.969413 3088.700187 15479.629264 15428.781012 15905.914195 14840.102772 14862.847911 19616.591883 13389.452751 9699.209744 6412.535956 15082.571408 16606.837046 17175.109501 18565.431979 15128.702398 10697.745525 12701.396504 12095.547786 13025.121530 19150.770945 15606.279850 12306.934935 12905.744260 10521.609280 17977.280177 3540.507661 17138.496602 17501.052648 12303.356388 12302.664726 7302.916319 15266.789861 17343.754841 13199.218912 12151.650595 16995.797443 1215.769365 13820.661257 16280.251890 18290.167388 14495.344095 19117.382809 11147.466095 16923.791021 12987.973735 13217.500202 14306.669200 11860.238651 1595.548119 15278.223242 13070.696397 18041.329749 11154.003638 9269.306918 16202.776141 15942.637615 14390.841235 18108.627612 5846.756639 12318.067218 11308.274066 9294.915078 10482.553813 11373.992321 10578.071977 10673.947423 14976.632662 11851.847476 4087.605660 10864.358808 14474.828107 1705.910420 11765.652537 9617.155336 9374.925208 13405.931768 13891.955735 15533.923442 9316.302855 13503.139820 5982.835307 8704.814393 10372.532443 12964.183401 8600.663864 11991.059970 17707.674244 6554.492846 7879.610728 14622.891941 7901.182957 15015.186207 7316.980066 7132.068173 11313.200383 15160.955677 13127.719836 13844.135364 12337.450212 12806.001208 12909.111590 14588.852006 11140.052444 16158.265272 6629.475533 14555.486137 7867.781295 7941.518799 13613.053253 10834.288530 13859.019189 12581.364617 12948.364027 13636.007727 13874.177891 14203.679919 14335.890750 13298.973265 18190.246387 15722.247664 13010.088211 13066.138270 13622.224798 14194.647548 14658.707329 9866.399652 13243.136028 15252.570792 16568.828684 13703.083895 18101.649407 18967.359890 15355.065155 13607.607554 13118.291128 11588.888321 13888.289994 13377.862094 13027.728349 12015.689485 11751.959239 10789.307846 12534.607213 13242.170698 16515.338524 12245.308257 13033.312862 18058.380957 18718.810206 15343.307029 12971.275491 12491.262166 15007.494759 15889.384411 12214.690143 13136.708052 15322.664826 13219.453301 13394.246185 13994.688360 14516.512385 16603.712161 15116.682681 13319.535653 13338.652981 13285.135027 16616.591958 13848.826940 21751.577374 13354.468981 13397.454148 12701.132153 13182.601286 13001.251507 12867.564010 14093.100036 13375.887938 15804.826468 14096.197998 13737.435189 13788.296380 15379.793582 15534.485968 13268.187010 12948.841647 12516.337470 13052.913734 12796.651992 13043.885058 12960.885338 12851.520767 14950.005609 14034.374666 13986.930804 14380.899240 13822.111367 13986.679893 14617.307357 17741.975496 12368.799767 12921.367754 13079.070494 14262.334811 13718.843420 13169.507686 13618.359793 13729.482083 16133.387205 13685.037100 13022.001360 13475.696025 14192.542840 13728.508930 18098.700920 12771.457962 13037.272605 12984.884172 13429.716358 12925.469484 13443.449288 14815.732058 13085.095091 13957.152393 16645.781120 13424.370199 13901.690934 14873.365629 14430.778151 14189.117419 12737.548605 12952.025710 13111.361016 12912.340874 13475.244769 14778.673728 13579.693578 14033.205987 12864.542724 13547.181841 14523.019161 14849.228186 15004.994977 18339.853151 17283.323326 14687.067940 13004.757458 13024.130181 13071.354230 12858.976877 13202.075215 12940.926000 13726.297567 15859.573900 17311.487017 14305.639219 13146.704686 13790.918127 13593.778253 16755.067758 13227.938815 12857.700952 13195.932414 12787.178019 12884.512937 13956.910560 13839.241461 15201.728861 13199.600557 13128.306025 12941.870369 14423.840744 15975.518677 13380.503771 14079.708191 12969.844227 12852.815444 12928.289618 12851.757934 12903.324508 13172.624102 13120.725620 13668.789235 13210.383461 13319.771797 12753.303854 14238.071299 13256.892678 13187.525816 13515.914116 12870.032277 12786.762326 13043.826052 13192.442382 13151.725580 13243.493422 14353.910628 13374.415578 13265.390850 2937.968181 12529.847874 13608.172594 12974.949931 15168.621485 13223.898231
</DataArray>
<DataArray type="Float64" Name="Velocity" NumberOfComponents="3" format="ascii">