<VTKFile type="PolyData">
<PolyData>
<Piece NumberOfPoints="2186" NumberOfVerts="2186" NumberOfLines="0" NumberOfStrips="0" NumberOfPolys="0">
<PointData>
<DataArray type="Float64" Name="Pressure" format="ascii">
 25955.960083 25576.456661 24993.333625 25169.995339 25014.088066 24545.151582 24073.924541 23915.264663 24067.965954 24652.352100 25086.594981 24963.560222 25112.403706 25098.352362 25321.468348 26035.928488 26468.784565 26349.078752 25371.062740 24734.433090 24443.617450 24312.213608 24340.364995 24325.560018 24218.709166 24031.008567 25012.308498 25436.490614 26042.171271 26455.055078 26602.629054 26009.340612 25008.895669 24482.427258 24550.184456 24771.512204 24846.371987 24999.936341 25483.228077 26064.596060 26219.706940 26015.293271 25943.647957 26099.114865 26108.924064 25836.214348 25397.489665 25160.127012 25089.001185 25124.685724 24917.464744 24549.841787 24257.246744 24185.741036 25022.048939 24987.092645 25007.023269 25168.009828 25394.413965 25536.468593 25431.877270 25091.143719 24786.375955 24684.960679 24736.018636 24780.510516 24854.271437 25102.294873 25403.056230 25632.374873 25861.053291 26206.665961 26543.120713 26547.764127 26251.747991 25876.342064 25525.116708 25249.673528 24993.794894 24718.598484 24478.913170 24331.830352 24292.577674 24031.008567 23752.336396 23293.040373 22816.459844 22607.280653 22495.824472 22332.421779 22165.053598 21946.631822 21548.939376 20888.998591 20491.665138 20649.166779 20792.181314 20884.652706 20629.194490 20211.711592 19862.284612 19717.403721 19494.508833 19026.800004 18542.879041 18218.733000 17809.160063 17705.634334 17578.533928 17284.024874 17064.215829 16791.302015 16536.458680 16193.113135 15914.570065 15711.059372 15691.431002 15467.332839 15234.573522 15142.379643 14821.009409 14517.898515 14269.140835 14080.535491 13826.915386 13589.516160 13465.292659 13202.362890 12844.818813 12518.942236 12499.353266 12435.781153 12342.696653 12275.661502 11948.525838 11579.646085 11395.751426 11280.489370 11198.368219 11146.544680 11066.927009 10886.666481 10714.407240 10585.407661 10385.597461 10098.622335 9609.726241 9143.202763 8746.244888 8397.911565 8015.957390 7704.342731 7552.278109 7263.646237 6797.925787 6251.840414 5690.677692 5318.618507 5027.746933 4756.871407 4334.356518 3755.462570 3187.849395 2937.113911 24185.741036 23946.286053 23418.252713 23219.548211 23057.555897 22794.321093 22666.066329 22650.945512 22402.683280 21830.908173 21243.590609 20854.202882 20720.666041 20741.255378 20777.669423 20680.991854 20513.786343 20321.191896 20033.861021 19640.476068 19198.087820 18749.373875 18352.127980 18051.127152 17862.692605 17601.596386 17293.592665 17105.442626 16847.705631 16534.058633 16230.082678 16014.783481 15816.146629 15619.598574 15471.095142 15383.389805 15239.246681 14956.842123 14623.399844 14320.261015 14050.608357 13778.129825 13587.485752 13441.723143 13162.996939 12879.515847 12648.130839 12519.134642 12413.937500 12275.747163 12123.965572 11877.331897 11546.278902 11351.429910 11222.243237 11130.979926 11019.944464 10871.018090 10711.862331 10575.447473 10375.327919 10112.637799 9780.356919 9315.377283 8923.785304 8618.685245 8290.695146 7971.237207 7709.424020 7468.264921 7135.453933 6643.248877 6086.691866 5622.268117 5255.809668 4913.372913 4528.873413 4053.951863 3567.640821 3179.570155 3036.366671 24292.577674 24245.543599 24031.383634 23807.324805 23557.357270 23220.375706 22866.293824 22570.455825 22266.571831 21902.329990 21605.889514 21375.880687 21122.301033 20922.585243 20812.369017 20689.734313 20469.269676 20172.774540 19848.429988 19511.997761 19192.770173 18896.639571 18582.260867 18263.545502 17972.983658 17697.831406 17423.760408 17185.313242 16969.371197 16739.930578 16482.245578 16232.443474 16024.246739 15804.855190 15581.816380 15382.628139 15171.789462 14946.361431 14699.807425 14448.671822 14215.651838 13969.022451 13704.008365 13459.456510 13230.186307 13005.216197 12795.903595 12621.992853 12487.202471 12350.136161 12166.936425 11932.027139 11655.998121 11409.532327 11246.701223 11137.458357 11036.670363 10917.588859 10772.212802 10602.439924 10394.542612 10131.679242 9822.676247 9481.744390 9133.182983 8806.119319 8494.752753 8188.512393 7895.679045 7612.129393 7300.003206 6912.965088 6452.693907 5976.877421 5535.888057 5131.896512 4735.849012 4322.033340 3896.580459 3497.768265 3193.507106 3094.016243 2937.113911 2718.211938 2370.900851 2102.844500 1922.309139 1768.976510 1606.317214 1478.418626 1379.837930 1311.085170 1266.187372 1229.508746 1200.181528 1172.552277 1146.995084 1123.452941 1101.717431 1081.559047 1062.758234 1045.110472 1028.421600 1012.490250 997.051428 981.520911 965.066241 955.669106 3036.366671 2914.200302 2713.788228 2433.909918 2173.953631 1967.161265 1803.078510 1658.549258 1528.547533 1421.625101 1340.227075 1285.062388 1245.575608 1214.359466 1186.153582 1160.277334 1136.477687 1114.512823 1094.155136 1075.193765 1057.435156 1040.701826 1024.830530 1009.670942 995.090713 981.024188 967.873316 959.050248 955.368840 3094.016243 3028.646832 2905.116157 2700.553559 2443.747756 2194.054507 1982.934637 1812.168947 1666.258965 1537.592998 1430.440184 1348.529037 1290.029701 1248.187013 1214.997109 1186.092553 1160.000178 1136.117341 1114.108320 1093.719463 1074.732439 1056.951833 1040.201889 1024.328818 1009.215686 994.834080 981.397664 969.642368 960.819714 956.424361 955.161629 955.669106 946.637640 930.949915 916.633106 902.982127 889.524004 876.115987 862.700237 849.248933 835.746941 822.186186 808.563526 794.879736 781.138862 767.347721 753.515494 739.653369 725.774240 711.892456 698.023604 684.184331 670.392205 656.665600 643.023604 629.485959 616.073007 602.805666 589.705403 576.794237 564.094735 551.630022 539.423802 527.500373 515.884656 504.602215 493.679292 483.142831 473.020510 463.340770 454.132846 445.426791 437.253510 429.644782 422.633290 416.252645 410.537410 405.523125 401.246332 397.744594 395.056521 393.221792 392.281178 392.276564 393.250976 395.248600 398.314814 402.496209 407.840620 414.397157 422.216230 431.349588 441.850350 453.773046 467.173650 482.109624 498.639961 516.825230 536.727621 558.410996 581.940941 607.384816 634.811809 664.292995 695.901394 729.712024 765.801969 804.250436 845.138821 888.550772 934.572256 983.291633 1034.799722 1089.189881 1146.558085 1207.003016 1270.626148 1337.531857 1407.827527 1481.623681 1559.034152 1640.176345 1725.171809 1814.147756 1907.241686 2004.616137 2106.506715 2213.381830 2326.463381 2450.039893 2591.112407 2674.546251 955.368840 951.778611 942.713947 929.690730 916.287145 902.878280 889.493150 876.107779 862.699391 849.250636 835.749578 822.189137 808.566492 794.882531 781.141348 767.349788 753.517048 739.654332 725.774547 711.892051 698.022436 684.182360 670.389393 656.661914 643.019015 629.480438 616.066529 602.798203 589.696932 576.784732 564.084169 551.618369 539.411034 527.486462 515.869572 504.585927 493.661767 483.124035 473.000409 463.319327 454.110023 445.402551 437.227811 429.617584 422.604550 416.222321 410.505457 405.489498 401.210985 397.707480 395.017592 393.181000 392.238473 392.231896 393.204293 395.199851 398.263944 402.443165 407.785347 414.339598 422.156328 431.287284 441.785585 453.705758 467.103776 482.037101 498.564722 516.747208 536.646748 558.327202 581.854153 607.294960 634.718809 664.196775 695.801873 729.609122 765.695602 804.140521 845.025270 888.433496 934.451167 983.166638 1034.670727 1089.056789 1146.420798 1206.861432 1270.480164 1337.381362 1407.672401 1481.463774 1558.869229 1640.005901 1724.994467 1813.959299 1907.028623 2004.334608 2106.012866 2212.196417 2322.969192 2437.850429 2552.951196 2634.169858 2666.200048 955.161629 953.962430 949.382594 940.344750 928.769566 915.977119 902.780726 889.462359 876.097110 862.694457 849.247163 835.746399 822.186020 808.563475 794.879721 781.138857 767.347720 753.515494 739.653368 725.774240 711.892456 698.023604 684.184331 670.392205 656.665600 643.023604 629.485959 616.073007 602.805666 589.705403 576.794237 564.094735 551.630022 539.423802 527.500373 515.884656 504.602215 493.679292 483.142831 473.020510 463.340770 454.132846 445.426791 437.253510 429.644782 422.633290 416.252645 410.537410 405.523125 401.246332 397.744594 395.056521 393.221792 392.281178 392.276564 393.250976 395.248600 398.314814 402.496209 407.840620 414.397157 422.216230 431.349588 441.850350 453.773046 467.173650 482.109624 498.639961 516.825230 536.727621 558.410996 581.940941 607.384816 634.811809 664.292995 695.901394 729.712024 765.801969 804.250436 845.138821 888.550772 934.572256 983.291633 1034.799722 1089.189881 1146.558085 1207.003014 1270.626144 1337.531843 1407.827481 1481.623532 1559.033663 1640.174752 1725.166609 1814.130782 1907.186273 2004.435220 2105.916033 2211.452307 2320.177705 2429.172453 2530.334935 2610.463608 2651.033279 2661.609504 2674.546251 2775.192794 2958.186851 3134.804444 3311.051122 3491.764543 3678.338179 3871.351998 4071.142597 4277.983503 4492.144749 4713.919210 4943.642379 5181.714411 5428.627247 5684.996721 5951.597133 6229.393802 6519.570231 6823.559262 7143.138226 7480.834107 7841.403202 8243.237323 8601.056739 8934.980076 9472.015583 9819.023793 10307.922271 11192.722869 11639.953588 12094.623439 12889.837243 13629.646227 14514.328524 15154.185656 15653.507749 16417.245284 17151.563739 17924.665434 18748.524096 19517.038870 20251.730557 20948.154000 21715.908560 22599.858997 23471.729562 23545.150409 23949.317001 25192.981980 25955.960083 2666.200048 2709.537113 2815.458656 2971.300590 3138.206074 3311.894280 3491.835815 3678.170206 3871.104995 4070.865199 4277.690057 4491.838731 4713.600237 4943.308158 5181.361096 5428.249249 5684.586150 5951.142263 6228.873972 6518.938053 6822.679449 7141.579968 7477.153890 7830.983707 8220.574030 8578.255021 8892.423965 9391.093595 9769.264625 10226.701236 11049.179808 11548.456989 11968.396340 12735.699900 13499.522596 14326.602081 15049.684440 15555.773071 16312.561436 17088.749586 17838.858818 18678.597668 19514.826986 20227.117525 20945.001036 21720.221736 22477.375834 23396.850181 24386.221247 25174.490056 25502.607008 25293.286948 25012.308498 2661.609504 2677.227041 2732.559323 2840.409687 2981.285495 3141.776182 3313.204057 3492.427177 3678.542253 3871.414850 4071.161956 4277.989463 4492.146574 4713.919736 4943.642422 5181.714036 5428.625863 5684.992140 5951.582100 6229.344473 6519.408235 6823.026860 7141.387911 7475.066140 7822.511500 8181.774548 8537.249205 8880.317630 9301.999176 9729.258938 10232.356138 10880.015850 11446.789101 11990.072002 12697.816347 13438.623695 14168.447823 14870.462298 15506.777221 16257.427387 17020.506953 17781.719720 18582.187901 19375.956395 20072.896275 20750.203820 21485.462742 22169.940145 22815.534917 23535.169766 24128.745746 24461.546136 24692.543714 24908.759642 25022.048939 11626.533626 11638.836431 13433.917351 13769.894750 14684.328013 15298.462961 15303.577953 18709.231962 16644.595652 14787.429549 19613.341867 19909.207883 20625.619562 22009.557691 22155.628181 21142.995231 22572.429449 22744.108784 21973.395839 23197.111123 13615.416489 16812.053844 13306.570036 17627.087774 15878.797862 14650.854027 15090.660866 17447.447016 18397.896334 17739.419650 18503.979894 21269.555446 22028.578575 22053.658492 22011.153173 20701.908572 21869.376497 20708.866574 22462.222570 22663.375280 15601.558884 17384.955147 13791.358691 19017.022603 15116.815892 17320.548960 17330.578841 22747.906356 19579.412687 20132.988315 20812.962601 21035.127101 19645.370196 22124.434701 21875.207317 22876.018031 20646.415187 21045.864992 23082.508745 19340.404666 18208.160775 19810.617697 15659.323080 16801.420880 17262.401999 21642.096316 16104.310413 19998.005582 19435.341755 21069.312396 21845.863339 22858.670316 22110.493390 22804.559734 21132.606727 19869.918015 23669.114520 22941.217775 23915.429417 23924.995474 18830.082107 21507.969008 16514.093221 16817.355346 21231.934225 19095.896974 16751.959575 20426.550421 19441.717766 15975.238814 22342.932215 20363.028144 20370.480357 21670.851799 21139.976713 20629.909136 22091.590659 23452.931304 23427.543524 23872.347428 13957.839014 17923.148628 15711.125027 15428.526985 16567.891535 17316.540057 18564.344906 21606.102048 18667.996328 18409.804472 20685.767856 22473.798946 18213.821733 18112.770422 21914.163306 21979.814316 22445.418285 23585.231831 22739.654736 23573.079977 18728.850115 16683.592811 17924.002477 18024.060325 15503.824496 20367.197456 21050.151270 20374.349306 19681.932949 17211.042082 21461.999227 21750.867242 22381.181605 22477.453119 20311.798245 21738.196496 21896.237242 24224.239089 23504.547226 23499.778675 18458.590932 15207.854160 16752.972885 18660.753858 17479.927322 16328.424220 16724.752086 18531.386023 19457.144455 17576.074340 22826.822343 20022.565934 21216.827165 22524.722635 21976.757561 22632.037305 21641.584925 22628.699977 22859.264963 23931.448747 15320.869518 14756.351042 16915.177227 13907.940584 18513.874868 16124.870301 18211.808887 15702.386813 16338.233901 17029.567605 16010.273053 18574.437706 19253.053468 20442.125049 21428.388514 19111.563761 22787.717931 19881.411017 24059.692180 24329.472330 14922.541772 15520.766035 20132.652547 15536.802154 16053.079471 17704.754959 14964.769000 14831.370373 16743.026827 21947.274857 19955.323066 19348.174617 20406.538477 19456.684872 19639.542129 20685.873876 22728.681035 22507.496466 20679.872556 23812.403868 17368.707511 18058.491764 15755.429191 17910.953607 17733.787985 20156.324315 16311.822180 16368.570209 19048.612538 19403.581037 17690.609470 22747.174565 18798.152042 23332.388545 20812.494511 22552.320647 20593.385840 23109.615236 23734.669227 23335.895879 13949.817160 13840.990091 15864.372465 16679.956662 15126.109827 16570.734014 15766.418071 14477.731656 15517.188184 22658.059199 19925.599448 15913.504198 20170.273671 19255.413392 18280.157575 21421.714742 22722.052605 20803.286394 22361.114729 23443.643501 15678.613777 14328.000085 14756.817775 16637.473964 16384.731903 14998.670789 15345.465094 16867.989065 16464.538108 16033.410120 14776.797009 20933.312307 15630.467181 20776.532671 20893.748434 20120.845265 22048.016754 23388.782216 24588.885321 23756.579513 13698.482748 14085.375876 16305.467642 14045.587826 15774.256945 17336.610153 15881.913406 16863.056957 14457.387264 19444.146669 18653.496691 19267.057295 24299.750178 20676.978775 20818.300960 21793.526253 24081.982164 22144.528218 21555.231958 25276.353876 17399.096186 13800.222231 14148.270894 14698.033577 15959.468362 17497.174764 15029.627588 18264.359268 18661.598418 16981.135934 20223.974946 17541.154507 20831.040159 22773.206679 22365.390164 17258.440122 20232.450031 26742.147871 22137.958194 26316.886077 13308.902863 13642.512757 13711.160689 14023.435259 16581.809752 18794.110673 15012.610735 14209.475806 17239.667717 14759.303559 17206.283975 16268.682105 22770.628493 21521.495268 23334.773561 22768.653266 20117.262306 26070.274603 21867.879134 26749.241328 17819.201362 13688.254031 13627.938517 14110.655426 15498.355511 15093.080873 15353.386748 17363.149501 17017.817331 16467.496501 15154.356714 20892.911537 19014.578582 22081.799688 17772.705407 22629.187903 19517.326073 21767.729724 25511.401106 26312.509189 11360.080111 12511.273890 13838.189242 13612.313673 13979.368430 14391.320412 15569.921910 14524.525599 16232.573697 15192.232366 20746.477478 16454.310434 16253.687628 16229.282397 21636.803575 19279.369493 21767.472362 25090.228343 24521.880798 24914.500074 9777.565548 13400.789315 13699.448284 13554.768421 13877.980126 13963.603191 14518.659645 15494.453482 19254.362857 20516.908910 18575.032822 19514.169495 24058.411933 18949.065995 21921.524274 23527.426240 23938.892534 23159.223373 21712.392515 25511.615500 13846.915590 12650.870822 13618.532279 13927.922042 14592.087273 13890.104432 13766.090500 19340.890919 16340.819653 15476.846347 19367.031719 17070.720979 23964.607794 21342.210835 23968.386309 23837.017186 23467.852814 24157.553390 24444.754461 22327.150519 9311.161797 11682.497269 14115.589422 13682.794556 13702.179208 14213.211549 14553.263358 15039.466142 16085.284295 18427.657119 17149.146673 16545.049011 18278.376351 23186.684556 18645.914660 19852.534243 21294.480298 22205.365478 23215.587161 23928.016018 11264.877150 12776.574923 13743.366450 13656.273132 16325.452437 14155.849332 14642.380186 15560.532610 14724.276169 14912.178350 20934.836042 23404.028110 21217.932346 21201.212094 21795.030639 18151.387774 22872.483923 20679.995094 23881.220039 23873.051283 15155.341985 13585.586938 15870.758893 13609.281586 14027.408493 13705.292318 15583.703505 15193.738920 18082.914374 18318.225048 17051.372568 21035.308618 18457.280400 22373.261960 15664.137601 23134.514058 25770.652312 24306.015409 24204.096221 23839.209795 12749.721817 13727.073322 13938.013314 13725.570827 14879.027105 13693.734446 16695.584158 15846.166879 14986.063506 18210.358710 20290.073153 19661.087250 20576.770153 21571.891813 23758.571696 24153.345089 24782.160625 26948.651533 24845.765009 24145.522596 15474.436712 14053.716985 13115.480602 13698.350389 15236.517096 13664.748423 14150.820496 16571.731117 14406.105848 15597.440004 15239.949354 20280.610463 15943.764524 16625.447329 23719.629395 22789.717227 23489.896807 23633.356643 24285.103156 23512.682543 13661.293731 13813.699743 14506.263886 13809.686029 14360.204116 14049.412583 13879.397258 15769.867759 15112.056821 17838.633895 17139.598666 17921.554761 22090.655080 20138.526406 16161.476276 21638.530301 23798.697739 21916.251075 24045.352242 24146.025275 6974.843254 12773.478065 14660.150449 13741.185726 16084.521352 16534.510235 14303.168013 14279.778341 14949.410949 17238.218965 16184.328087 17635.860543 17630.943825 19853.166316 22652.347748 22033.501473 22761.092203 25813.772887 23403.389876 12922.709812 13391.284766 13811.182376 13586.369716 14127.100044 14890.036672 13841.509369 16014.680302 18699.054132 15481.037149 16863.530920 19446.376735 22842.960523 16783.804816 23723.243853 23080.484076 23349.063592 21137.843318 23032.045669 12735.116397 13000.825671 13758.066584 13751.233334 14411.297654 14510.750192 13925.748335 14978.639753 16201.167143 17189.705452 19158.979922 17112.608410 20913.682060 15796.126870 21621.486396 23072.818533 21908.041958 22700.208749 22655.799087 12221.996487 13288.686875 13730.763213 13535.521250 14038.858127 13924.445146 17491.571501 16845.448565 16120.736310 19100.893752 18128.658443 17088.342525 18266.407393 19295.580629 20206.750712 19497.730593 21104.698406 21200.268853 22226.246123 12567.487572 13732.049905 13864.882088 14257.208416 13696.065696 13117.004689 15410.469804 14851.260360 14289.928742 14472.466653 17260.183255 13885.443454 19726.757248 17795.945982 17995.025250 23864.219458 22173.942581 21996.572432 12467.408126 13156.299820 13498.384864 13621.919227 14312.100880 14209.609834 15650.978371 14395.809060 18274.985438 16578.949076 16792.523585 20666.170936 19117.141829 21443.456749 21624.241640 22118.898342 21269.920061 21850.560188 8871.299495 13040.259068 12858.249174 15086.222517 13834.514757 16961.334367 13273.739623 16724.474524 15197.985369 17651.651180 19650.974496 20500.370740 17800.187421 21938.385158 17525.008874 22886.055264 22803.675053 9654.603637 13202.361596 12982.191403 13670.948272 13821.077466 14655.469399 19058.987169 13949.203736 14414.332625 17444.932382 15707.330149 19694.585391 22686.338293 20773.183599 18407.472930 20975.890381 21404.524714 12625.369793 12658.160239 13999.350710 12370.670030 19132.129587 21048.046554 16628.333655 17591.229330 16107.652217 23319.507285 16505.567819 22008.866489 20945.066740 22205.736776 21110.221918 20764.715281 20564.462491 20562.556131 14456.316193 13586.210945 18654.454168 12945.691313 13564.377268 13090.155475 14097.023067 16664.803318 19310.660262 20273.322424 20975.491845 19997.723696 21759.270813 20681.688985 21415.991101 20795.322286 13203.483264 12337.463606 14899.369159 13818.662216 13998.104382 18805.852299 15236.201316 18797.088505 20153.477707 14614.355796 20429.188833 21085.492947 22623.073593 20521.284079 15862.404209 20168.972763 12728.632476 12349.229684 11601.288230 15602.302952 22061.232549 19262.506802 18996.200736 17152.785366 18653.220857 16150.051331 17199.407852 21310.079127 20655.856078 21533.671244 23398.113781 20727.159774 13688.555570 10918.410086 13216.835663 18617.168907 14275.879197 14605.557123 19971.740334 14166.548287 14402.604854 20634.184891 18582.700974 21689.653845 21141.403750 22552.977680 20159.569375 11285.110919 11295.870074 13447.194332 12131.411445 16305.305147 13593.870306 15679.655324 18285.960891 20712.923302 20223.784719 19327.233997 22770.938215 19832.337754 17127.455926 19596.562180 13651.540077 7462.848918 11414.887154 12993.873582 14516.185896 16523.902125 13155.138373 18039.170820 21123.783038 16861.412369 22711.267739 17126.429443 21411.095093 20608.821373 19385.274901 9372.607490 12934.855780 10180.039528 12653.029019 14607.384743 14982.805673 15687.811437 17319.738882 16367.317465 16944.333092 21258.604482 22676.795307 20839.810429 19296.496353 14814.524715 11032.871563 13874.634768 20139.734075 18148.914112 15504.129193 12746.008400 17122.719064 17618.913960 20728.966234 20265.348952 16542.743370 19787.572802 19086.972626 12605.596115 9421.233047 13942.039320 14295.178870 19191.694801 13355.670598 20851.155527 17352.439649 15079.245969 14708.378671 19926.537888 20167.855362 17881.199920 18646.367894 11222.689296 18066.468370 11883.877615 15833.816990 17806.069840 17813.134740 20929.467124 16712.547964 18874.741057 18252.746430 21474.308196 18305.972713 18052.500416 18371.330349 14303.427778 13908.332383 16614.715955 11333.362188 17903.632757 12659.684728 18943.582570 19420.513127 20978.542297 20433.119947 20056.547200 17814.697895 13775.339049 15422.924114 20326.983356 15875.411832 17915.812227 20522.521551 18681.411419 12664.757166 19889.105568 18426.319960 20157.149870 17700.083563 17733.499351 15691.546416 13680.397315 14103.920166 18073.675646 12794.744637 18618.407586 14029.224112 17686.844650 18276.635068 18456.866242 16632.174329 18015.379720 13003.966858 13627.572593 14468.640404 12881.313890 9549.110748 14823.579655 16321.640377 20638.555710 15735.112468 19406.135072 17755.356548 17180.432639 13380.985234 12738.954504 11345.516798 19079.519230 10459.960741 19286.435522 19944.613694 17474.582063 18915.128056 19834.640668 18732.895671 17178.349930 17179.511571 7662.386851 16736.811622 15628.080442 18549.316480 14889.041848 14707.431510 16279.200165 21573.596414 20503.714588 18586.880360 20868.294024 16969.155094 8992.128678 13215.537666 14460.910343 19686.615393 19483.034275 18571.875381 8451.846235 20980.830719 13896.179679 16474.657725 11155.313566 13374.935497 13058.347430 13765.428305 8116.594931 18747.541394 16740.507408 19563.081549 16064.286184 18022.637713 16199.390173 12752.769421 17439.052212 14319.541700 15861.307575 17331.939011 13017.570663 16272.506195 18624.149539 18435.386668 15868.384552 14385.513547 15116.365952 13029.613971 17702.176007 17836.429299 17848.822651 16898.688658 20618.637005 20868.345602 18546.038748 1455.405306 10144.914748 6903.188118 17706.710643 14319.944026 18401.882969 14581.366324 21033.771494 18524.916477 15485.906163 5146.147997 16088.968299 15096.617404 15121.080369 18825.525354 17014.237138 18856.503931 19196.135301 15224.895408 11466.903984 11145.605603 15745.271814 13363.228462 15483.998338 20068.269900 16784.994384 14030.476166 15454.810835 11528.750599 10974.402387 16076.106205 16796.363009 19911.025697 18722.720132 19950.352198 18895.642121 14861.633031 12831.121388 15827.175420 15136.104100 16381.650664 15232.730989 16318.942480 15798.227861 20843.371811 5592.850138 11222.503183 10353.810038 15380.879755 19572.617006 16519.321909 13052.889828 16832.564153 4686.765655 15961.821770 15095.402405 16423.108415 14447.220154 14970.944697 19387.620327 14185.084106 11323.085929 6054.008152 15438.883471 16201.851131 16876.147611 18543.089553 15191.074928 11656.127945 13621.256070 13125.568134 12628.990837 18615.970008 15927.553234 13535.748979 13453.891763 12361.771060 17981.458243 6207.221281 16674.538571 17567.567761 13534.586340 13534.983422 9511.779235 15434.790011 17265.057289 14474.264270 12856.550815 17360.523082 1321.535525 14277.844001 16228.440159 18731.287048 15064.677561 19094.158795 12254.529968 17617.204029 14438.411757 14019.718302 14519.037890 12551.219065 1919.205319 15636.680955 14632.391961 18456.935340 12503.836831 11118.555411 16148.225327 15139.987404 14677.674951 18560.993002 8399.985743 13084.720011 12601.672584 10678.339820 12483.058377 12635.812580 12095.285284 12803.327864 14884.265870 11656.049669 7559.634056 12440.055716 14578.229370 2071.791209 12769.810200 11577.140234 11449.783157 13986.128235 14433.539446 15791.765729 11441.972743 14510.264470 7559.176846 11189.000469 12691.017342 14173.101915 11163.886820 12777.329055 17263.900008 8921.563398 10594.961942 14896.970372 10835.432091 15134.190158 10250.855962 10113.151456 12533.972061 15325.502222 13538.803376 14612.313445 12973.914016 13303.070293 13478.383089 15091.275623 12655.417101 16028.097961 8702.871459 14872.341453 9798.425597 9818.965591 14101.322465 11955.150640 14373.722372 13285.217692 13700.521618 13948.659389 14136.125242 14484.884584 15196.999700 13823.634310 17274.253365 15636.123240 13683.376669 13621.785065 14300.326890 14368.455006 14778.576781 11647.744256 13710.088870 15380.001821 16232.229151 14215.297287 17407.658355 18058.954022 15300.697369 13944.659850 13658.103981 12230.289982 14370.509220 14168.102440 13661.339404 13121.118230 12220.064725 11038.566645 13248.703276 13915.231088 16649.061436 12987.114322 13466.979361 17286.916819 17759.987408 16050.408342 13337.576940 13605.886559 14863.377847 15496.927498 12865.890172 13628.213103 15064.740135 13627.319006 13874.720340 14312.776321 15035.648138 16459.004571 15588.002229 13952.708978 14066.304319 13854.897543 16573.976603 14717.553993 19504.708605 14122.024382 13889.629496 13231.454370 13612.485678 13143.504791 13405.437003 14694.166105 13585.788976 15942.612600 14517.730849 14244.621838 14209.272320 15344.176101 16081.508638 13811.297983 13429.686504 13469.070910 13487.978163 13443.769878 13487.712487 13477.335196 13527.030943 15655.846519 14504.691699 14446.489503 14999.603496 14644.213778 14614.218332 15192.700439 17463.660116 13006.572643 13451.954693 13865.310771 14831.787123 13968.909333 13570.153509 14285.003128 14226.816607 16909.939546 14164.053526 13681.055565 13909.845726 14632.349038 14219.253485 17954.334202 13421.868980 13379.247294 13153.881044 13816.973614 13582.814045 14065.744845 14943.090687 13331.050092 14206.111471 17314.849099 14051.449703 14250.039081 15202.323186 14992.865662 14590.917425 13372.948783 13528.587416 14118.341344 13198.272235 14232.385258 15187.944439 13815.075331 14404.103684 13299.704958 13982.362499 14857.698181 15047.381571 15375.566223 18768.354680 17828.850845 14758.593714 13414.525461 14109.795389 13599.408979 14142.942040 14129.223689 13370.372354 14263.346916 15705.485534 17000.982528 14604.181230 14076.334667 14429.180090 13884.745035 16397.283179 14054.681076 13401.595525 14059.715992 13809.852421 14170.403323 14408.139054 14076.458772 15488.556418 13426.514287 14031.707720 13812.894436 14862.564352 16040.902333 13967.672750 14542.489521 13411.574769 13867.969966 13267.718711 13691.242476 13803.646257 14056.415223 13976.700655 13911.001447 13698.805494 13668.758700 13950.220130 14700.389513 13971.347084 13951.568565 14209.547870 13255.401823 14131.461523 14051.310872 14079.420195 13624.922648 13962.716800 14364.370418 13035.947282 13085.614732 4059.122344 12294.737749 13657.862168 12325.076598 15401.510769 13788.033297
</DataArray>
<DataArray type="Float64" Name="Velocity" NumberOfComponents="3" format="ascii">