<VTKFile type="PolyData">
<PolyData>
<Piece NumberOfPoints="2186" NumberOfVerts="2186" NumberOfLines="0" NumberOfStrips="0" NumberOfPolys="0">
<PointData>
<DataArray type="Float64" Name="Pressure" format="ascii">
 27620.021975 27313.144961 27718.609692 27900.803475 27592.121583 27749.946932 27895.452532 27436.256145 27717.269709 28295.701182 28234.375710 28488.519853 28353.466828 28519.987981 28722.140884 28810.223435 28713.539488 28726.826359 29228.593578 29278.902396 28638.098189 28689.663468 28176.501470 26953.621253 26353.578311 26042.023402 27786.077105 27791.339514 27681.271169 27645.946310 27976.229937 28202.965559 27894.237882 27672.292538 28115.880631 28571.612155 28529.074173 28490.654715 28799.615814 28961.159510 28903.200526 28880.261747 28718.219781 28635.422448 28872.820077 29219.054377 29417.400517 29672.903233 29599.620121 28828.565228 27804.814696 27021.379485 26238.468367 25884.450449 27912.818592 27875.085428 27847.658479 27853.919319 27881.590502 28068.452058 28287.275394 28292.334664 28413.982569 28908.151900 29229.727382 29097.423180 28883.210372 28755.454204 28737.011692 28800.191028 28850.137196 28867.349288 28880.329021 28999.767723 29139.925914 29256.967049 29318.920341 28934.466566 28114.446733 27393.005838 26757.910203 26067.606128 25788.665876 26042.023402 25920.253164 25540.795904 25887.867328 25724.495680 25138.303855 24610.692669 24448.506310 24056.255420 23782.057064 23735.293430 23541.062432 22453.999173 21555.854876 21277.157532 21422.633294 21268.349279 20414.418650 19584.798528 19760.343647 19986.515319 19439.839067 18533.741472 17690.617394 16837.461326 16683.391374 16918.699288 17013.981475 16828.250661 16402.599406 15403.790713 14971.358278 15022.925934 15083.663259 14386.974173 13212.310496 12027.042926 11641.505443 11859.557403 11577.562173 11031.642579 10887.550433 10777.331509 10618.299604 10161.709931 9569.859311 8704.701266 7880.559611 7771.197078 7695.168745 6871.704909 5695.949924 5165.981604 5184.495859 4855.457690 4532.766784 4473.218348 4633.076973 4431.337666 4122.013498 3904.708446 3816.418141 3901.802717 4000.241415 4007.976354 4050.515096 3629.442158 3722.057756 2973.244701 2888.206052 2781.350204 2340.608196 2489.986706 2088.271492 2228.323913 2340.109180 2462.707069 2606.435551 2641.996399 2537.664590 2351.367270 25884.450449 25858.707904 25810.845896 25631.312712 25428.859356 25174.494916 24923.840581 24715.877220 24507.485698 24355.361932 24219.821196 23933.194047 23190.396131 22322.458925 21706.418641 21320.295379 21052.690698 20645.741991 20224.945366 20096.323229 19849.332735 19146.772058 18334.310600 17632.152337 17009.315055 16682.366326 16784.920598 16704.337717 16348.991416 16032.987267 15550.541549 15104.807331 14818.816471 14525.458234 13913.115630 13179.857729 12664.285472 12296.083181 11745.772891 11050.397260 10700.055094 10732.524880 10750.481144 10640.096986 10177.386716 9514.897061 8850.196157 8198.263888 7691.536824 7235.595800 6479.385130 5767.407814 5385.210835 5181.176980 4950.678570 4754.712259 4723.984594 4605.601116 4370.655363 4109.630677 3914.219685 3873.965655 3927.330223 3862.190302 3687.854935 3656.991956 3592.859905 3381.234216 3105.675802 2869.001478 2717.951187 2521.908044 2289.997566 2296.453062 2397.070582 2459.403812 2528.348672 2624.985035 2621.960769 2463.122394 2366.085314 25788.665876 25721.407026 25755.316621 25783.109016 25771.371027 25651.771374 25324.698455 24910.611217 24564.524980 24319.581882 24184.854763 24005.534868 23585.804144 22969.155700 22357.613154 21824.660338 21365.257105 20942.201023 20569.916954 20253.220105 19917.181007 19488.033197 18993.313210 18458.799661 17845.276503 17258.406502 16814.265014 16435.103504 16043.583662 15677.612467 15372.666469 15074.330215 14736.509133 14362.636644 13875.116793 13255.435907 12660.869899 12169.309927 11674.958111 11201.054287 10914.147215 10824.373881 10787.054608 10645.794183 10304.525052 9812.468426 9282.395166 8718.810539 8110.326911 7506.704101 6889.045012 6281.585785 5783.339471 5419.793533 5141.586979 4901.483966 4717.910594 4584.894778 4444.394297 4276.820529 4114.576862 3999.398823 3942.039985 3895.322852 3811.429447 3711.483992 3611.546689 3459.929077 3264.367034 3060.502340 2872.138071 2708.901839 2555.968918 2459.521427 2446.621133 2479.831797 2521.976799 2560.814154 2569.273949 2512.732716 2418.562692 2377.596682 2351.367270 2180.451451 1919.146676 1729.889112 1612.619822 1525.250463 1435.651300 1364.533499 1310.479888 1283.600591 1291.064468 1305.961024 1318.111185 1325.559857 1329.611229 1330.856045 1329.642210 1326.242020 1320.886731 1313.772179 1305.056087 1294.842039 1283.117293 1269.463045 1252.941312 1242.657487 2366.085314 2304.251263 2164.954030 1963.650786 1781.965208 1645.593716 1547.795938 1468.325360 1397.602842 1341.548735 1306.384312 1297.501935 1304.213920 1314.721512 1322.818476 1328.030731 1330.588860 1330.739928 1328.723674 1324.760357 1319.045649 1311.748905 1303.013929 1292.962008 1281.702773 1269.396919 1256.723287 1247.823896 1244.231224 2377.596682 2351.427526 2284.567554 2148.795395 1969.184553 1797.233146 1658.951221 1556.216514 1474.905420 1405.592755 1351.247149 1317.596758 1305.484647 1308.264077 1316.025365 1323.165142 1328.103508 1330.562345 1330.655003 1328.586127 1324.567667 1318.794668 1311.440261 1302.661339 1292.621234 1281.557515 1269.972184 1258.987508 1250.376679 1246.147707 1245.033278 1242.657487 1228.758480 1203.413305 1178.907759 1154.537728 1129.728329 1104.373837 1078.479817 1052.086337 1025.244098 998.007196 970.430800 942.570345 914.481169 886.218288 857.836211 829.388766 800.928919 772.508596 744.178494 715.987887 687.984436 660.213987 632.720376 605.545243 578.727843 552.304879 526.310337 500.775352 475.728083 451.193609 427.193855 403.747533 380.870115 358.573817 336.867622 315.757310 295.245522 275.331828 256.012828 237.282260 219.131119 201.547800 184.518234 168.026048 152.052722 136.577752 121.578823 107.031974 92.911778 79.191508 65.843320 52.838425 40.147266 27.739704 15.585196 3.652984 -8.087705 -19.667463 -31.116477 -42.464309 -53.739641 -64.970013 -76.181530 -87.398538 -98.643275 -109.935473 -121.291929 -132.726020 -144.247175 -155.860280 -167.565036 -179.355240 -191.218011 -203.132934 -215.071147 -226.994344 -238.853712 -250.588806 -262.126344 -273.378961 -284.243897 -294.601649 -304.314593 -313.225588 -321.156569 -327.907168 -333.253352 -336.946115 -338.710221 -338.243007 -335.213155 -329.259187 -319.986758 -306.961691 -289.688635 -267.541075 -239.531309 -203.339781 -154.610385 -122.597560 1244.231224 1238.162666 1223.347961 1201.643882 1178.449530 1154.421169 1129.712214 1104.386336 1078.499328 1052.106258 1025.262400 998.023251 970.444418 942.581473 914.489803 886.224442 857.839913 829.390051 800.927832 772.505191 744.172832 715.980041 687.974485 660.202020 632.706493 605.529551 578.710457 552.285920 526.289935 500.753643 475.705206 451.169707 427.169075 403.722024 380.844024 358.547294 336.840812 315.730358 295.218568 275.305008 255.986275 237.256099 219.105471 201.522778 184.493944 168.002589 152.030185 136.556222 121.558375 107.012677 92.893691 79.174685 65.827804 52.824251 40.134463 27.728291 15.575183 3.644373 -8.094922 -19.673302 -31.120968 -42.467489 -53.741563 -64.970741 -76.181143 -87.397133 -98.640964 -109.932389 -121.288228 -132.721881 -144.242804 -155.855914 -167.560944 -179.351726 -191.215417 -203.131647 -215.071597 -226.997011 -238.859128 -250.597556 -262.139074 -273.396374 -284.266758 -294.630787 -304.350902 -313.270024 -321.210152 -327.970981 -333.328538 -337.033883 -338.811866 -338.359982 -335.347326 -329.413678 -320.168737 -307.191553 -290.030390 -268.205107 -241.227172 -208.810776 -172.141545 -144.873787 -135.050529 1245.033278 1242.855410 1235.073151 1219.958937 1200.291531 1177.967983 1154.248156 1129.639419 1104.346525 1078.471428 1052.083760 1025.243307 998.006952 970.430725 942.570322 914.481162 886.218286 857.836210 829.388765 800.928919 772.508596 744.178494 715.987887 687.984436 660.213987 632.720376 605.545243 578.727843 552.304879 526.310337 500.775352 475.728083 451.193609 427.193855 403.747533 380.870115 358.573817 336.867622 315.757310 295.245522 275.331828 256.012828 237.282260 219.131119 201.547800 184.518234 168.026048 152.052722 136.577752 121.578823 107.031974 92.911778 79.191508 65.843320 52.838425 40.147266 27.739704 15.585196 3.652984 -8.087705 -19.667463 -31.116477 -42.464309 -53.739641 -64.970013 -76.181530 -87.398538 -98.643275 -109.935473 -121.291929 -132.726020 -144.247175 -155.860280 -167.565036 -179.355240 -191.218011 -203.132934 -215.071147 -226.994344 -238.853712 -250.588806 -262.126344 -273.378961 -284.243897 -294.601649 -304.314594 -313.225588 -321.156571 -327.907174 -333.253372 -336.946179 -338.710430 -338.243691 -335.215393 -329.266513 -320.010739 -307.040184 -289.945561 -268.382369 -242.280407 -212.452018 -182.017565 -156.706370 -144.456083 -141.890762 -122.597560 -65.036736 45.195132 158.770164 278.822757 408.662533 549.714760 702.949302 869.162508 1049.050532 1243.214940 1452.147457 1676.209390 1915.613562 2170.415462 2440.521223 2725.721409 3025.762130 3340.471508 3669.974986 4015.063653 4377.839148 4762.802125 5190.522294 5681.446901 6100.034411 6718.561869 7309.987072 7847.793633 8993.823014 9956.420339 10704.375645 12067.284268 12985.035037 14029.025301 20723.256718 22343.816614 20890.522347 20962.923659 20534.962157 21253.292648 22369.852030 23402.292640 24207.339028 24987.000257 25822.319470 26340.177957 26400.205940 26761.412902 27131.844950 27620.021975 -135.050529 -108.388433 -44.558378 51.885539 160.243524 278.921946 408.327851 549.226947 702.394303 868.569008 1048.430570 1242.576265 1451.497243 1675.555189 1914.963202 2169.776372 2439.899246 2725.118944 3025.174799 3339.880486 3669.325271 4014.195078 4376.238439 4758.735807 5165.997656 5613.013045 6094.953948 6658.576760 7261.406443 7958.197321 8915.632374 9874.271925 10871.306523 12278.763534 13957.151105 15369.676413 17587.813833 20033.281514 21881.011332 21844.517437 21348.453820 21712.267915 22525.512317 23366.923087 24144.616444 24905.374005 25601.022855 26247.104372 26640.470557 26963.405126 27366.911899 27668.908632 27786.077105 -141.890762 -131.816366 -97.618296 -31.339699 57.374591 162.418561 279.945279 409.006579 549.820293 702.981676 869.172443 1049.053581 1243.215878 1452.147749 1676.209490 1915.613613 2170.415497 2440.521130 2725.720456 3025.756864 3340.447317 3669.874317 4014.672009 4376.390261 4757.770401 5162.923055 5599.928831 6084.742726 6629.271365 7245.225536 7990.454844 8879.492576 9859.692032 10991.750292 12363.798754 13917.090093 15491.521535 17292.477572 19749.175742 21517.104459 21857.960273 21803.632988 22038.235137 22569.590546 23200.665376 23887.601365 24611.304816 25269.245244 25879.045235 26435.670957 26893.577496 27278.529328 27591.675862 27816.858347 27912.818592 10055.683199 10321.229401 10287.907603 10437.709627 13136.578976 18433.382446 19997.996865 20921.080160 19111.922974 11325.480294 22251.457691 22778.956985 23730.930516 25121.851862 25426.920213 23657.910994 26181.962738 26133.513349 26397.669094 27001.655160 11117.128911 16259.599278 9891.492571 19322.568511 10721.376229 14215.805502 14091.641826 18886.748543 20083.353041 19696.100587 20877.902427 24121.875878 25248.210324 25424.559102 25362.690932 23480.232687 26464.064349 25926.656715 26728.760427 27132.086476 15662.392147 18070.839089 11813.386289 21236.761289 15009.085715 18875.857901 18963.710231 25479.270985 22207.479955 22789.012376 23986.694198 23952.211914 22878.788835 24996.331786 25408.919129 26456.139026 26022.401861 25922.357257 27097.925546 26297.960422 20219.357938 22280.877668 17868.823935 18017.637029 18313.356259 24551.547350 17358.736741 22536.534797 22610.781999 24619.254937 24745.805131 27269.218811 25404.309652 25530.374597 24216.063570 26170.729792 27262.768643 26177.844227 27366.059825 27392.825850 21634.875825 24605.825273 11470.513079 17239.220430 23802.057715 21474.372777 16640.484449 23060.771296 21735.514024 14992.607707 25254.329138 23207.111652 23940.448996 25288.089840 24850.047416 25898.815384 25142.987986 26823.170698 26849.842969 27341.356003 12147.857302 19827.555944 14653.325342 13982.809006 16045.117403 17558.920572 20920.707192 24685.292981 20783.879767 21260.725858 23267.155582 25734.027722 18624.944289 20300.948187 24704.220299 24825.226852 24886.216139 25974.392387 26182.635540 26855.478823 20958.553791 16516.619037 19854.376165 19514.669514 14275.089062 24147.852039 24583.937288 23865.704633 22676.799207 17131.901959 23952.299411 23887.694491 25986.154336 24625.864886 23850.106380 23695.193899 25128.196354 26451.461605 26699.081333 26925.368872 19025.190705 15046.499093 17408.483366 19044.381626 18117.760371 16086.303047 16527.925266 21164.102159 22680.975600 18767.216169 24830.198854 21392.119131 24611.368773 24732.171294 24597.860238 25502.008583 24473.568119 25802.636088 26666.375758 27072.692828 14419.204321 13364.199571 16708.484968 11837.748849 18455.049225 15582.390102 19688.557493 16235.148426 15642.737658 17585.368994 16707.802674 19970.919125 22007.985145 23909.185014 23649.483328 20838.700202 25072.516152 21328.317446 27023.055266 27848.034966 12789.079353 17090.111100 22228.290245 14327.232164 16839.150376 19816.688436 14514.640920 15281.536255 16651.463370 23777.674436 21175.394132 19972.121872 22473.915654 22328.089991 21265.187551 22593.905480 26592.430414 26237.297637 22440.280310 27754.647903 19312.768082 20349.465494 14090.868680 17912.681372 20864.615486 22944.444090 17925.964914 18031.800273 19712.436732 20410.189629 18213.071237 25539.580853 21197.843478 27161.767871 23015.733931 25301.785784 22606.439691 25764.427731 27904.388945 26678.381164 10542.260736 10789.536163 14263.534916 18181.211780 14173.004505 17058.951374 15141.302624 12430.623446 16845.006414 25963.824644 21628.671685 17472.693921 22245.154861 20242.398898 19348.159762 27221.477180 25017.309056 22531.153493 26263.040365 27875.150509 13812.998903 12635.000371 14054.347444 16216.334102 15659.482636 13528.231897 15181.608055 19613.694023 16456.144003 17044.175109 14307.039760 23595.230577 18039.753901 22753.198341 23323.728047 21725.687156 26530.124414 26905.346792 28637.690942 28071.158719 10257.534265 11090.015663 17232.852725 11674.638861 15403.790889 17838.337424 16061.619390 18469.426942 14142.457652 20608.974236 19257.082658 20808.273352 26781.410880 22821.358544 22800.683439 24770.030067 28492.902149 28142.752188 27231.984279 28763.270635 14036.521285 10233.746565 11975.573950 12899.036991 14852.791146 20756.567425 13634.136183 21671.910135 20687.479651 16386.327044 22889.623516 18888.622139 24187.171273 25790.825780 25300.083274 18857.599727 21896.432560 28551.641593 26869.783623 28480.125380 10020.185179 10356.723625 10327.273897 10687.604496 16629.838406 22108.035535 15138.774302 12466.139005 20051.683521 13667.705524 18114.827736 16424.749047 25318.681301 24171.525348 27210.103050 25142.350767 21968.840403 28105.882682 23678.198963 28758.469230 15916.883132 12121.201958 10674.911916 10769.698679 14900.135334 13229.979472 15285.248193 18375.972816 19877.215408 14951.419989 14929.903150 24521.784055 22357.328612 26138.518652 20998.825432 25736.046099 20885.728643 23839.685409 28924.300948 28702.709432 12471.072858 11015.548679 10829.339095 10924.158299 11348.794723 11618.505509 14753.557716 12639.403247 16555.015563 14880.106838 23834.037740 17581.597617 17640.092836 16676.373911 24688.191499 22128.969566 23936.139520 28374.995785 26927.988393 28119.682849 12746.523436 11510.912089 10549.099553 12388.518246 10509.190096 11666.677475 13326.013555 13720.357056 21338.309904 24060.199931 21528.839253 22943.087358 26318.380322 21030.707021 25350.078298 26257.301476 26648.641540 25805.796864 24348.685385 27410.887360 10991.851609 11052.647683 11109.897637 10844.086397 12161.647753 11325.517243 11419.927328 19215.696384 15310.008506 16224.046859 21473.852738 18251.692886 26147.060576 25300.018922 25949.888405 25902.472977 26425.125903 27505.013662 28157.327392 28250.186084 8884.779501 12265.485448 10129.330376 10750.709383 11257.848686 12655.271750 13825.823123 15803.427781 17152.126605 19607.411231 18901.135726 18575.914704 20164.208598 25296.282027 19116.226850 22127.894145 25370.183811 26705.539827 25289.668299 27609.742779 2735.824559 11427.453373 10474.094726 11017.188101 15156.162602 12706.261547 14379.359767 16437.469911 14517.499336 13872.944064 24470.500132 26260.907827 24666.913399 24537.468689 25440.681024 19942.640099 25272.789463 23305.385300 27367.454046 27215.756462 14835.901665 10614.950118 14381.606151 11348.151897 13526.692840 11571.765564 15916.720553 14591.058000 18518.666432 18741.190313 17671.779313 24946.825401 20724.067764 26125.917267 17725.885794 26014.326046 27975.767053 28162.261852 25835.252104 26749.559379 9811.708791 10923.456381 11079.891785 11293.201035 12423.596431 11653.648783 17572.609890 15902.736760 12922.100688 19985.207626 23305.592430 23216.644627 23437.924395 25596.903670 26013.477856 25830.825365 25978.374967 28189.710187 27529.124616 26053.080081 15674.345537 14657.212446 11184.967769 11490.745315 15740.050973 12071.360045 13009.667657 17036.996511 13282.219589 15134.438471 15927.400232 22168.033713 17280.729966 17651.023181 25969.880507 25779.001742 26354.818304 26349.552295 27400.054553 25936.406755 12584.355931 10909.919323 12346.089167 10456.533082 12894.053912 12629.514855 12256.084130 14120.959983 14947.030485 17086.643858 16111.241297 19015.356396 22313.085603 23830.565021 17588.285701 23986.592175 25692.231055 25403.696010 26299.210025 26026.973951 9929.797893 11413.175705 14918.325608 11959.662966 15266.336158 14955.052488 12021.285991 13607.710476 14868.509964 18953.213737 16496.356274 19922.468262 17284.925685 23660.603254 25355.638416 24653.222770 26033.790374 27751.370074 25851.669754 11306.643235 10636.640304 11653.021171 11485.243900 12677.302196 13512.959004 11892.519161 14302.355793 21426.872843 15983.458355 18765.293394 20642.208262 25282.766477 18528.130443 25304.336188 26295.758165 25878.073562 24822.765118 25765.317402 11252.299026 11286.442302 13056.554653 11041.641395 14439.280652 15277.814929 11347.479324 14331.085692 15424.400463 18945.175338 21796.367472 16966.770359 23008.003622 16759.559485 25455.364080 26383.990798 25281.359434 25643.848124 25614.284850 9086.882393 11786.210897 12179.281947 11522.587914 12686.229075 13315.000709 15986.156197 18198.165682 17720.638620 18406.157827 17927.241755 18282.262248 21423.888825 21016.937912 22172.353257 22973.360813 22720.631616 24658.012264 25250.640326 11485.032015 11304.225829 13313.033963 13247.877281 10725.968868 11739.376644 14339.209577 15974.544747 13008.477563 14181.196829 18681.614104 15131.233036 20567.054603 19539.345504 19192.178735 25832.807786 25987.580156 24512.698315 11841.594341 11647.184498 11766.961279 11590.355693 14006.541010 13550.580411 14280.740472 13369.278650 18545.337156 18660.007611 16527.104108 22219.634296 19999.155045 23366.499733 24778.045362 24426.893705 23257.471792 24141.734352 13499.321985 11310.340167 12063.943636 13758.605896 12000.069758 14990.231947 12516.876747 15124.082555 16292.848037 17314.553343 19528.155178 21404.137119 19672.594231 25498.784071 19969.065585 24073.130165 25945.581053 12575.313832 10886.007942 11581.106763 12326.680954 13852.745777 13921.779847 20308.154195 13053.935844 13322.755778 18639.531202 17239.789235 22281.057682 25665.062977 21480.325231 22125.935666 24631.917321 23370.216813 12189.642071 11562.167701 12677.723470 11687.704607 18765.272486 22394.933284 15512.675089 15525.536681 15634.971854 24028.434553 16599.069098 24018.000560 23320.259599 24312.893778 21460.393578 21251.492670 23566.079264 23576.443980 7174.231994 13022.781506 19974.305800 12371.744121 12318.650781 12080.785533 13374.803648 17712.289103 21841.146840 21298.908364 22387.626525 22703.146117 21942.643809 22479.094605 24654.503814 21379.030250 12490.505922 11675.296621 14451.496824 13175.540588 12141.387977 17494.175149 15396.258036 20427.941933 18406.599822 14823.755149 21227.217279 21596.435878 23310.034919 21519.253057 17501.402079 22098.482758 13225.479220 11803.510837 13116.039728 14698.868011 23119.039742 18775.961216 17726.649305 17922.781114 18469.672751 14584.590526 19707.027395 22337.754984 23586.502916 25253.080339 24609.339721 21416.168097 10330.623130 12881.665213 11980.831150 15780.520654 13452.801478 13176.218167 18173.353809 13021.347590 14291.895821 21645.653766 19939.865471 23097.257366 23136.254594 22967.986935 21548.087654 12390.787596 12294.622837 13613.597790 13299.969749 15541.165517 12117.643488 15022.157891 16656.844694 22126.999047 23830.702808 19297.042908 24562.896172 21247.534664 18104.005020 20884.175714 9087.560343 13546.328390 12433.986628 12339.146152 15381.221720 15317.142432 12248.019951 16709.055070 21258.673543 15571.628486 24987.254494 16351.158574 24092.494499 21365.057361 19748.044303 13747.554836 13379.212983 12859.409407 12116.290985 15202.081432 13850.540694 14415.976551 16817.571994 16394.378838 14700.991562 22973.374122 23763.913569 23340.931736 19359.461555 10001.526684 13290.554633 12911.703130 19410.977737 18983.317861 14340.135043 12981.872268 16983.700376 17915.810220 21601.119558 20408.173095 18321.814192 21412.419264 19633.607889 9809.949809 11680.013381 13535.163056 13656.375036 19800.125200 13308.975996 19025.068242 17457.659901 13642.279342 14864.596334 20920.352812 23465.808772 17931.180789 19963.404676 8935.380427 17054.252915 12407.429839 16074.992078 18420.914837 17832.344898 21301.179316 16805.217283 21508.061249 18748.553318 20063.957936 19313.416303 19010.442991 15202.620093 12692.660031 13336.705216 17750.361613 13160.263672 18509.577257 12519.237507 19108.476530 19527.466640 20338.058268 20958.044665 20860.460379 18560.881728 7814.169160 14324.759971 20868.164338 15691.841058 17029.926703 17357.396050 18976.012718 13738.555109 20439.898196 18546.084863 19605.667833 16937.061164 17724.606479 13704.765275 13364.014740 13437.929903 14935.490521 9931.523333 17505.290590 14727.688714 16954.509575 18753.366096 17317.584382 16588.920861 17207.193746 6114.088993 3794.297038 11595.671348 11949.662928 13836.684695 13865.708581 16203.183656 19772.384743 16814.119313 21113.958651 19748.488581 16978.351901 12507.854307 13027.127466 13283.717550 19638.900883 12804.016802 17518.612068 19039.511547 15668.321802 19911.814257 20098.411350 18313.821868 16980.525258 16980.650279 4621.093805 14835.520211 14872.758481 16608.494375 15412.259330 14379.033394 14768.881500 22179.468291 19484.734285 16374.779090 21144.298517 13627.318493 10160.702519 7562.328925 11550.862329 19994.189136 16529.795971 16206.687180 12913.211016 21648.619529 11056.470933 16053.216920 3669.465186 13390.903119 12826.942865 13880.300435 11381.654871 16886.921770 16721.501633 19779.168973 14911.682811 18875.193122 15174.615613 6479.187913 15923.959660 9972.103000 13521.623553 15280.372728 12896.104327 14721.513377 19138.027998 15543.110935 14772.705490 12711.501819 14786.649567 9228.965667 16849.433594 15006.937930 15885.780231 18320.069541 20823.109105 21169.724733 18358.845696 1346.854917 6513.645398 3602.011494 12619.670826 11700.714011 17295.262237 11471.969192 21876.706464 19144.028792 14926.032501 3655.192088 12453.818129 12094.371877 12686.364385 16668.476682 14493.775308 17142.956335 18972.887346 13742.096640 5511.531633 10866.170635 13590.361617 13273.074934 13230.577699 18434.688248 15696.655747 14369.303079 14415.239512 3891.000462 10624.867082 11220.447578 15351.734876 19498.901554 15969.785549 19658.020703 18912.918506 11278.169411 4660.636560 10574.890657 9645.744377 11600.942904 14292.227780 11886.247999 14783.055338 21213.296281 10955.203399 9074.465222 5814.974952 12045.032151 16679.400530 11993.198505 9833.994217 14244.154206 2466.449727 12998.528063 12436.232913 13052.160428 13208.983194 12582.524654 18734.230968 11731.345913 3067.434552 5381.336979 10114.951134 14937.123544 15247.098216 18461.556956 13492.769492 9316.702755 10174.497354 8006.067086 11475.136669 16105.862880 12105.271420 10793.649063 10085.217947 7196.027304 14501.272337 3742.423823 15621.894004 14817.333707 10732.495189 10726.301645 10267.242321 10400.912318 16150.929509 7958.410107 9068.065364 16469.588340 1284.125599 7683.847305 13554.863390 15749.081529 13508.731261 17700.336563 4472.950887 12845.645735 8233.451687 11075.836174 10792.150288 8605.334882 1603.363717 11233.734820 10918.251067 14168.271982 7789.194784 4162.152950 13778.500712 15334.601330 10586.717414 15859.371950 3712.219606 7339.996965 6976.651243 2564.575313 7310.359257 9268.626124 3798.413169 7076.623020 13203.350918 9180.933521 2444.825755 4046.194516 10180.924225 1705.986312 4938.867330 7102.826471 5368.543693 10022.766652 8793.893744 12070.701071 5189.264430 9953.614386 4435.790016 4289.153585 3700.768802 8441.413086 4280.068822 3443.143034 14881.143856 3708.356038 4973.722975 9840.741599 3763.769909 11801.118572 3992.758808 3772.807462 8305.650399 11303.101848 10622.482037 10213.292027 9176.340291 9788.070198 10640.715201 11244.422791 9777.475535 10663.104423 6024.056596 11593.149677 7390.547496 7587.645384 12484.033283 9810.472462 12652.466753 9793.754626 11001.023966 12160.049457 10957.878835 13448.884083 13262.306338 10809.079214 17786.652175 12733.393954 11068.477326 11863.462561 12051.651853 11242.018750 11044.663200 9435.184983 10927.636678 13990.227402 17712.607920 12434.640788 18533.893269 19813.043472 11043.127116 11581.339271 11152.482785 9929.273699 11971.898690 12577.615398 10972.386740 10153.346672 9557.128551 9760.757546 10442.960108 12018.116263 15864.900575 9931.436294 10595.457202 18724.395088 19119.390675 14588.161702 10702.579099 9433.202610 12646.562040 15566.134402 9473.104980 10777.989747 11035.691305 11168.743520 11526.401311 13094.227713 13201.098434 17398.905090 14564.298413 11742.037908 12371.481322 10743.940652 17284.176106 12632.617379 22530.426908 10307.977263 11245.485259 9885.330495 11469.428708 9989.058670 10290.645518 13921.315839 10929.663071 14505.916610 13061.542241 13173.690906 12450.580922 15980.476988 15766.157852 11363.193482 10461.770895 10497.773028 10951.337369 10466.424908 10177.121432 10340.869391 10843.459364 14488.340141 12617.015736 14494.035752 13735.198599 13674.091749 13549.497789 14978.917005 17795.936216 9481.633681 10890.333465 9291.199103 12898.936324 11346.829577 11539.867991 13013.468181 12389.319690 15747.252459 12691.485450 10242.148594 11582.734926 12619.466789 13135.212952 19060.075015 10491.551356 9482.485435 10003.810549 10776.654680 9250.472752 11388.101835 13453.054717 10493.519355 11945.758591 16679.429356 12106.056984 13225.902870 13022.936783 13562.238320 14106.576794 10326.346464 9781.662083 10322.463186 10147.382563 11488.690780 13980.787093 11583.413349 12050.788660 10034.121985 10957.933173 13824.764163 15647.981901 15844.028588 19214.945911 16833.209730 10965.956374 10290.963683 9867.102848 10372.989886 10115.598186 10193.340943 10346.359423 12518.498455 15430.413134 15743.871775 12319.496504 11270.143180 11969.607487 11392.183305 17421.665892 10933.390191 10229.304017 11145.142110 10209.538034 9827.400561 13561.920798 11958.763908 16114.149410 9962.629777 10082.420276 10442.622056 14342.623948 13692.483811 10839.073110 13615.782351 9769.632290 9318.459743 9874.935391 9851.887917 9767.401379 10392.360201 10342.265791 12011.719044 10737.886377 10380.430553 9806.704965 13755.758506 10257.425407 10152.769017 11620.813263 9775.785831 9138.145827 10291.293312 10283.923223 10631.798037 10483.010864 12832.358182 11211.087855 12567.178254 2681.221018 13351.998704 11379.148471 11535.569731 13860.018847 10612.632716
</DataArray>
<DataArray type="Float64" Name="Velocity" NumberOfComponents="3" format="ascii">