<VTKFile type="PolyData">
<PolyData>
<Piece NumberOfPoints="2186" NumberOfVerts="2186" NumberOfLines="0" NumberOfStrips="0" NumberOfPolys="0">
<PointData>
<DataArray type="Float64" Name="Pressure" format="ascii">
 26845.644500 26284.967823 25604.108478 25371.316010 25181.417231 25296.957324 25354.682611 25637.572333 26066.247725 25860.459557 25505.994590 25863.011895 26163.485830 25799.554566 25543.729599 25979.349210 26410.333347 26715.455145 27034.247043 27624.406354 28008.698174 27072.536010 25703.761070 25734.245724 25487.466951 25355.948820 26360.365265 26758.569973 27043.980781 26521.651094 25687.055034 25308.034367 25716.739048 26262.906530 26481.056440 26434.595467 26491.463772 26487.019536 26328.580124 26047.479334 25943.062403 26053.865031 26402.508126 26789.136400 27092.078053 27248.496921 27591.743177 27737.084876 27670.609514 27488.162347 27283.328264 26543.658379 25627.747738 25412.583268 26319.904294 26313.000322 26475.613264 26818.904395 26854.564448 26524.443389 26163.179478 26002.700099 26106.114593 26253.146145 26334.906346 26434.623559 26570.415201 26600.346671 26535.520008 26483.813206 26537.462659 26641.559417 26711.149244 26724.556070 26845.266691 27216.152418 27566.815181 27645.378684 27473.341255 26840.991297 26026.546345 25549.620702 25448.802572 25355.948820 25227.606162 24680.110688 24434.929436 24125.625585 23700.931666 23478.255370 23347.868870 22858.023422 22287.546342 22048.173391 21761.797034 21491.514261 21341.839124 21066.021499 20524.786861 20078.083318 20097.087851 20214.267983 20026.181142 19671.327702 19051.428050 18640.033485 18275.918890 17778.236649 17067.948697 16289.075987 16282.461217 16510.278974 16452.637132 16178.698051 15878.612534 15427.408085 15016.680282 15045.506108 15172.024298 14912.408109 14326.517282 13990.958053 13577.356290 13156.821361 12771.540976 12430.076849 12349.098878 12437.849645 12536.202921 12306.154461 11828.869056 11422.418628 10730.343466 10075.569413 9245.669131 8365.149982 8283.321638 8735.512983 9207.564042 8980.487026 8525.320132 8391.294171 8413.077689 7860.568971 6756.930634 6163.277849 5735.437943 5665.903844 5825.537545 5724.565384 5591.010289 4753.371733 4365.982867 4082.377183 3933.001046 3892.576718 3868.169498 3647.807937 3356.276153 3178.246748 3050.738387 2851.823559 2568.721246 2386.175813 25412.583268 25388.936890 25263.610899 24725.942759 24152.228209 23992.736392 23954.943661 23682.055153 23219.516587 22766.242562 22350.095371 22010.773976 21677.942284 21349.228396 21123.021427 20825.984324 20555.213435 20517.867311 20347.495641 19957.525423 19694.099517 19462.376401 19013.057731 18302.133349 17553.400149 16835.000936 16354.764675 16226.414222 16268.995526 16268.006896 16179.019534 15961.841929 15615.494151 15313.117674 15264.866664 15274.178198 15076.574891 14659.627830 14099.637815 13556.485593 13116.715549 12712.204562 12454.548431 12396.005274 12390.169574 12290.057910 11962.727772 11466.133140 10918.068671 10355.764611 9763.108674 9154.545611 8656.476795 8596.415184 8845.831265 8844.225565 8564.197118 8366.387723 8274.078633 8032.777464 7529.263225 6880.771488 6395.943170 6090.595791 5867.724945 5757.703298 5541.947057 5091.075393 4672.255725 4315.080841 4046.551875 3944.676848 3885.172966 3736.155924 3529.005920 3321.006421 3139.407385 2967.706891 2763.400274 2535.228859 2433.514808 25448.802572 25390.829174 25271.458688 24963.240252 24559.826225 24275.538526 23980.293244 23531.497635 23072.550346 22716.103877 22452.758433 22278.834189 22093.753520 21851.642725 21591.389362 21255.722205 20897.745625 20632.725383 20393.258755 20093.562122 19741.682226 19352.763248 18898.283740 18381.520986 17808.694435 17223.815999 16746.742354 16441.070353 16285.198866 16206.877024 16112.558403 15948.777083 15728.488888 15530.401673 15416.112195 15305.335007 15112.195228 14786.179221 14298.626962 13760.919217 13282.070590 12886.486056 12602.619862 12444.812351 12357.751386 12222.627770 11944.624541 11528.068849 11036.516298 10522.846973 9992.854221 9463.980372 9012.519637 8756.093124 8704.009495 8681.513424 8556.011576 8369.447692 8186.350969 7966.138314 7637.122299 7199.633795 6747.315877 6375.853221 6092.572566 5869.322457 5644.168762 5334.649925 4961.547203 4600.815264 4299.554474 4081.736722 3929.657862 3788.498262 3623.354660 3439.043510 3251.881929 3068.423217 2882.097918 2688.508289 2521.305025 2462.418663 2386.175813 2217.589609 1952.179328 1752.484367 1624.276906 1522.673162 1415.914619 1331.148809 1266.026447 1224.814937 1206.623757 1194.974680 1185.383214 1173.744596 1160.958072 1147.407767 1133.284535 1118.722155 1103.828273 1088.690294 1073.372559 1057.900074 1042.199283 1025.819627 1007.989613 997.651206 2433.514808 2355.321143 2208.866647 2000.112482 1807.911014 1659.319894 1547.519802 1452.727566 1367.181217 1297.025191 1246.336782 1217.659098 1202.022965 1191.225352 1180.000643 1167.948912 1155.191495 1141.851668 1128.044372 1113.872362 1099.425060 1084.778141 1069.993823 1055.122286 1040.210148 1025.357118 1011.159496 1001.521724 997.489427 2462.418663 2423.816125 2342.621089 2196.068580 2007.075478 1824.025364 1672.870114 1555.779161 1459.217065 1374.691653 1305.105817 1254.747812 1223.283329 1205.009065 1192.070799 1180.081718 1167.795445 1154.943134 1141.544987 1127.688742 1113.470604 1098.979516 1084.294487 1069.489539 1054.653185 1039.948769 1025.787280 1013.140435 1003.531890 998.723920 997.345674 997.651206 987.309145 969.261001 952.720191 936.933359 921.383133 905.918904 890.479258 875.030975 859.550493 844.018550 828.418712 812.737022 796.961968 781.084508 765.098080 748.998589 732.784367 716.456098 700.016739 683.471407 666.827270 650.093416 633.280728 616.401757 599.470588 582.502718 565.514937 548.525216 531.552608 514.617150 497.739787 480.942298 464.247244 447.677915 431.258302 415.013075 398.967571 383.147793 367.580430 352.292869 337.313232 322.670410 308.394116 294.514931 281.064364 268.074915 255.580139 243.614715 232.214509 221.416648 211.259581 201.783142 193.028614 185.038773 177.857947 171.532045 166.108594 161.636760 158.167355 155.752840 154.447310 154.306468 155.387585 157.749449 161.452292 166.557716 173.128592 181.228956 190.923885 202.279367 215.362163 230.239648 246.979665 265.650361 286.320027 309.056942 333.929223 361.004684 390.350715 422.034177 456.121331 492.677791 531.768532 573.457935 617.809899 664.888015 714.755821 767.477157 823.116632 881.740273 943.416509 1008.218004 1076.225921 1147.541888 1222.324844 1300.911043 1384.202340 1475.383843 1579.689933 1641.470730 997.489427 993.326377 982.866824 967.828569 952.325743 936.813860 921.346447 905.907926 890.476793 875.031731 859.552788 844.021800 828.422664 812.741521 796.966889 781.089734 765.103496 749.004084 732.789832 716.461431 700.021841 683.476184 666.831634 650.097284 633.284025 616.404412 599.472536 582.503899 565.515297 548.524706 531.551182 514.614766 497.736406 480.937885 464.241764 447.671335 431.250592 415.004204 398.957506 383.136505 367.567884 352.279032 337.298068 322.653882 308.376183 294.495550 281.043490 268.052499 255.556129 243.589057 232.187145 221.387518 211.228621 201.750287 192.993795 185.001921 177.818989 171.490908 166.065204 161.591043 158.119237 155.702248 154.394173 154.250716 155.329153 157.688272 161.388312 166.490879 173.058849 181.156265 190.848209 202.200679 215.280439 230.154876 246.891839 265.559484 286.226108 308.960000 333.829282 360.901776 390.244877 421.925450 456.009759 492.563419 531.651403 573.338089 617.687367 664.762815 714.627953 767.346582 822.983226 881.603684 943.275707 1008.069803 1076.060196 1147.325879 1221.951399 1300.023713 1381.599157 1466.322598 1551.316897 1611.315941 1634.937851 997.345674 995.942438 990.628500 980.171916 966.778614 951.972023 936.703202 921.312550 905.897248 890.472614 875.028937 859.549868 844.018359 828.418653 812.737004 796.961963 781.084506 765.098080 748.998589 732.784366 716.456098 700.016739 683.471407 666.827270 650.093416 633.280728 616.401757 599.470588 582.502718 565.514937 548.525216 531.552608 514.617150 497.739787 480.942298 464.247244 447.677915 431.258302 415.013075 398.967571 383.147793 367.580430 352.292869 337.313232 322.670410 308.394116 294.514931 281.064364 268.074915 255.580139 243.614715 232.214509 221.416648 211.259581 201.783142 193.028614 185.038773 177.857947 171.532045 166.108594 161.636760 158.167355 155.752840 154.447310 154.306468 155.387585 157.749449 161.452292 166.557716 173.128592 181.228956 190.923885 202.279367 215.362163 230.239648 246.979665 265.650361 286.320027 309.056942 333.929223 361.004684 390.350715 422.034177 456.121331 492.677791 531.768531 573.457934 617.809896 664.888004 714.755787 767.477046 823.116269 881.739087 943.412640 1008.205374 1076.184698 1147.407329 1221.885623 1299.476659 1379.530866 1459.881159 1534.521668 1593.661956 1623.576623 1631.351966 1641.470730 1716.744963 1853.863051 1986.622902 2119.639962 2256.699075 2399.024193 2547.240954 2701.797542 2863.095001 3031.529604 3207.514613 3391.502979 3584.017768 3785.689429 3997.292227 4219.765042 4454.196870 4701.760276 4963.597107 5240.718843 5534.143521 5845.789828 6195.148821 6551.478118 6931.112677 7655.783382 8135.891352 8598.348330 9584.598728 10168.331142 10738.817207 11875.121245 12848.021990 13603.096641 14214.251921 14782.056784 15955.743974 17097.662107 18060.236444 18921.087886 19829.366949 20752.998610 21622.660701 22349.071553 23248.114121 23910.033879 24305.753459 24691.916359 25832.851732 26845.644500 1634.937851 1667.406241 1746.741352 1863.616728 1989.125748 2120.229560 2256.705914 2398.844314 2546.993323 2701.518353 2862.795093 3031.211676 3207.178149 3391.145394 3583.634500 3785.273999 3996.836724 4219.261042 4453.635613 4701.127531 4962.847397 5239.676336 5532.100325 5839.965764 6169.099085 6529.118751 6920.586882 7526.370482 8059.957425 8540.802486 9355.850268 10059.615913 10695.798030 11671.814350 12622.580664 13439.244301 14140.455808 14772.089407 15834.001922 16967.231390 17954.706933 18934.984590 19883.600914 20729.827392 21611.237920 22535.769936 23533.689922 24456.085765 25008.543799 25358.619866 25994.491439 26403.021293 26360.365265 1631.351966 1643.065742 1684.526389 1765.353230 1871.075175 1991.811465 2121.240451 2257.191112 2399.175554 2547.287517 2701.811867 2863.099406 3031.530954 3207.515008 3391.503036 3584.017582 3785.688735 3997.290009 4219.758018 4454.174519 4701.688669 4963.366017 5239.968103 5531.682254 5837.832988 6158.060084 6508.677766 6921.322995 7418.026938 7954.787969 8544.051177 9243.988958 9968.945746 10736.006036 11631.254357 12523.991033 13331.467164 14061.330332 14859.514119 15870.512832 16939.602866 17958.145725 18949.302160 19901.444217 20786.055690 21638.706047 22487.352922 23305.717162 24005.226563 24531.590906 25052.762015 25621.013114 26065.291506 26257.846421 26319.904294 10224.769435 10286.981314 12087.836103 12509.410165 13796.508367 14427.211185 14421.705109 19085.771080 16325.620108 13155.232036 20140.515343 20584.364736 21629.422600 22348.412281 22525.022738 22080.224894 23270.683254 23267.024373 23890.763471 24802.581956 12244.440091 17140.763991 12158.442783 17794.850640 14934.061115 13984.790192 14746.490440 18178.460534 18750.766481 18562.686952 19527.085774 22062.073215 22187.642862 24395.129154 22193.700021 21809.269274 23367.304903 25170.189786 24326.510101 25048.575018 15622.912426 17346.807407 12537.904743 19866.657663 14634.697094 17310.872186 17565.468237 24070.839887 20680.541782 21351.689532 21749.763509 22099.891417 20602.674844 23095.222944 24372.624079 25478.748534 25235.109900 22711.913147 24557.938179 23614.890179 18855.560676 20911.033271 15151.982249 17161.118560 17343.290860 22316.070853 15451.769775 21274.582553 20814.466858 22658.914995 22821.919894 25150.358610 22624.123318 24055.556312 22223.423413 23963.587157 25473.197315 25465.493761 24881.295837 25195.604920 20059.739744 22288.093117 16318.590070 17172.429152 22062.263847 20159.519082 16246.939985 21121.950490 20031.533739 16268.254604 23196.710658 21306.562531 21974.124628 23350.349168 22875.620525 23025.297961 23036.520438 23817.155812 24182.098465 25013.677340 12779.157021 18641.796253 14475.253215 14127.854801 16481.696729 17714.026600 19658.912128 23123.766237 19384.124849 20244.476505 21761.182182 23929.559417 18550.651666 18807.236231 22993.868695 23580.533225 23199.258581 23360.210714 23136.111961 24671.414406 20077.517689 16553.384267 18800.034998 18498.868933 14792.519667 21915.690427 22644.828383 21976.771278 20898.007053 16463.220510 22078.518315 22240.450972 24056.992568 23224.332937 21884.361648 22257.333716 23538.151922 24904.271659 24950.564663 24562.912499 18006.052080 13858.448250 15426.161490 17563.915365 17902.788681 15646.211258 16774.513122 19623.569861 21014.902953 17556.826375 23269.754537 20169.382600 22774.481979 23293.927599 22987.363482 23517.674818 23002.665553 23766.198463 24305.222811 25006.219276 14710.353312 14231.141620 15819.985583 13087.573305 17951.730337 14811.323473 19063.047606 15631.161118 15730.248283 16821.114487 16159.744987 19141.678561 19930.411224 21794.169219 22277.511497 20097.881440 23286.802473 20286.521982 25064.621302 24693.249646 14575.112631 15825.632013 20475.446745 15265.435123 15367.454414 17184.754548 14091.680428 14342.962170 16218.675021 22109.433132 20109.166074 19296.852380 20766.380156 20924.570625 20127.476448 21096.839226 24318.834405 23609.681201 21153.626705 25240.197980 17867.709743 18390.286667 15205.341857 16604.960889 18154.193269 20711.312814 16065.253672 16070.328789 19005.115851 19130.723482 16411.855165 23515.049965 19983.803210 23557.701352 21633.907926 23497.039338 20856.899632 23566.761273 25338.456639 23465.633949 13147.694224 13270.267172 15040.981407 17234.989620 14841.789888 16608.428109 15376.227324 14045.102421 15300.951254 23414.779450 20213.191340 15869.783300 20545.170113 18956.830928 18587.579269 25863.613071 23517.529606 20969.319666 24272.747687 26225.601100 15142.409125 13989.183013 14694.115050 16177.418819 16721.670192 14621.131908 14955.477293 17165.353021 15976.314937 16142.291238 14144.150993 21772.006362 15319.589669 21082.115064 21642.208643 20372.568788 24871.319178 24591.255269 25497.861019 25995.203878 13426.440193 13648.165497 15979.593571 13735.760716 15418.821564 17637.642016 15107.382354 16881.268751 13837.484283 19319.371497 18031.787875 19459.401342 24278.646761 21241.932325 21378.373743 22523.514502 25689.763154 25805.506977 25751.194051 25507.887708 17652.711545 13356.298364 13554.837200 14222.576185 15714.735695 17789.014692 14667.596277 18262.683502 19046.949474 17458.809618 20798.109228 17513.607722 21759.073228 23261.946959 23370.984569 16629.087856 20650.450616 25711.215746 25043.081317 25758.354304 12252.990200 13273.879662 12773.005401 13557.725618 16607.451726 19140.942777 14394.777707 13675.080838 16887.807406 14501.258005 17299.004263 16249.856991 23452.228161 22632.436564 24747.129498 23063.660086 20249.966923 24826.406670 22179.404083 25700.851060 17705.990339 13769.104100 13107.049887 13360.950636 15500.648198 14789.395340 14877.998331 17071.410751 17385.543875 15319.732399 14755.363511 21876.394500 19540.820783 23438.417266 18197.119393 23476.803526 19362.602479 22559.566555 26467.019147 25926.128337 12334.160328 12910.653032 12600.928025 13349.199956 13673.321387 13734.906488 15091.250263 14104.269305 15499.633838 15184.051868 21606.774458 16374.696658 16195.649126 16089.097748 22538.957784 19654.212743 22268.274874 25047.984015 24098.351530 26957.094060 10138.745117 13050.972393 13195.641326 13978.863837 13433.467606 13944.817800 14088.637427 15365.211229 19267.053279 21063.011308 18637.457524 19571.851758 24906.566987 19391.373698 23051.743704 23668.685554 24777.851390 23598.666109 22609.651097 24274.120654 12497.955888 12891.341643 12629.148261 13581.988671 14113.915768 13562.404108 13104.028624 19211.061081 15741.426947 15087.845329 19278.629370 17632.170987 25247.212275 22554.616124 24876.813229 24350.705885 24965.547796 26635.477056 27625.721803 25784.499839 10292.587730 12392.542740 13375.218099 13515.014688 13448.437221 13792.994763 14058.809681 14738.203349 15755.811319 18128.545842 17393.184865 16461.789591 18666.084138 23698.621904 18502.738795 20602.367715 22760.621195 23404.985125 23594.377846 25946.650773 8284.406956 13055.346168 13021.507655 13296.894443 15751.905108 13824.552664 14819.202434 15837.956950 14127.139132 14335.932044 21824.113998 23756.418321 22246.780268 22685.240760 22698.054496 18164.808421 23445.967330 21474.364065 24272.954503 24913.875782 15426.218444 13084.614681 16340.105750 13629.385882 14275.106003 13461.103429 15023.669807 14560.685137 18066.497256 18390.924533 17544.369934 21792.934606 18341.437766 22824.827092 15382.174481 24198.596392 24303.125446 25016.924881 27109.189392 24416.783362 12317.070343 13492.396697 12794.242864 13589.158138 14394.801090 13739.518112 16953.190985 15117.735306 14718.824760 18313.235242 21145.323038 20260.125518 21573.866436 22451.728575 24729.974950 25256.176679 24689.802881 24785.583827 24898.087270 25401.934709 16070.247457 14346.723302 12950.930351 13756.795635 14947.314624 13962.339197 14441.206167 16993.860788 14475.941011 14945.207624 15259.339723 20441.933656 15806.061211 16551.095748 23412.944599 23258.383870 23724.873712 23635.877638 24030.194588 24631.520741 13563.814867 12727.785279 14114.024190 12669.832266 13943.493623 13381.781711 13795.733057 15666.130269 15227.744380 17950.983613 16998.731346 18430.307784 22458.186812 20637.933237 16381.788002 22599.027432 24307.515322 22952.036262 24828.576121 25401.993022 4416.835042 13003.353147 15458.232226 14040.602928 15579.212850 16070.126071 14003.413092 13944.254466 14561.279904 17465.055531 16447.695946 18323.537985 18058.083075 20065.710275 22781.000112 23141.917414 23465.002448 24445.328347 24318.748580 12894.146649 12889.699642 12820.118849 12895.832734 14521.086443 14923.866005 14069.081561 16529.558543 19162.815399 15454.220388 17186.692052 19326.337714 23777.941291 16882.242137 23501.390711 23069.966498 23588.249845 22260.016119 23854.307214 12797.751182 12998.978281 14150.530793 12789.986031 14868.660329 14930.593546 13443.741700 15182.402052 16901.682945 17862.303857 19250.498092 17598.903405 21465.756573 15660.306902 22338.799221 22859.469347 22667.238744 22656.039004 23656.300594 10003.698894 13338.328558 13052.527497 13019.192557 15023.640322 13482.798970 17298.639058 16481.744839 16290.047529 19017.653139 18010.324752 17028.788538 18521.877004 19174.613236 20338.337821 19923.535900 21851.475171 22557.698377 23503.758048 13074.279416 12879.200317 14517.284449 14296.342052 13359.248371 13129.450279 14927.381354 15307.437843 14200.654254 15115.534922 17331.244660 14554.446725 20215.633897 18343.737978 18103.009073 23789.718683 22973.174475 23102.629174 11042.157144 13061.327095 13220.724952 13450.966413 14472.307818 13765.061778 16071.486649 15662.994201 18865.494707 15993.648225 17236.937742 20826.593594 19051.723895 22121.442678 22096.145202 22860.370361 21931.055011 22719.404572 10500.346548 13119.755967 13221.420673 15751.363966 12907.230943 17395.013381 13369.481677 16356.880463 15468.750294 18194.972708 20367.177517 21297.556970 18083.050690 22976.289544 17589.974388 23756.563375 23480.783531 11010.383470 12805.398914 13148.853747 13729.442129 14018.142155 14914.483533 19097.896145 13973.771192 14514.203440 17901.535637 15320.944874 20052.545415 23584.353330 21479.494669 18976.462595 21500.177914 22016.232386 13202.475985 13061.653370 14291.349726 12973.863338 20044.771604 21824.905004 16709.400008 17176.480274 16811.601679 23439.485103 16030.558732 22956.427131 21184.742371 22722.632108 21608.641327 21373.068602 21802.188309 21803.879899 12011.809541 13615.592584 19230.866662 12993.833007 13553.760736 13399.604197 14895.192333 16247.521657 20015.606082 19906.506281 22119.537349 20012.772074 22420.276151 21332.647545 21988.201500 21422.234066 13470.783980 12791.307756 15963.409003 14007.319194 13786.316406 18999.405637 16039.944942 19784.048852 20769.504268 15109.680550 21341.119286 21603.305210 22472.752446 20793.260349 15785.455214 20422.494191 12505.678819 12555.283799 12170.959004 15732.554961 22288.453977 19816.080169 19595.871505 17585.507855 20283.264159 16389.873358 17230.250843 22126.413682 20839.594017 22352.440428 23413.067670 21199.477560 13488.723998 11880.086660 13412.173091 19188.648511 14400.699887 14583.190092 20628.587999 14281.500341 15239.040755 20969.425510 19053.969085 22846.393895 21773.384756 22476.943185 20110.010272 10895.001641 12245.267489 13869.691898 12600.821747 16532.887075 13628.678474 15864.124279 18267.601003 21533.604785 20877.619801 20157.796038 23369.780089 20632.293129 17449.641567 19821.041291 12664.019911 9840.224528 12407.869573 12222.611556 15502.845494 16710.004425 13331.077185 18373.778991 22122.626397 16803.904489 23072.741203 17283.517623 22033.681348 21111.886983 19989.128774 11008.222150 12458.104208 11540.285407 12881.940923 16152.863563 15162.932882 15688.442827 17477.343755 16411.567696 16835.062445 21775.197382 23257.289589 21317.974822 20150.410979 14261.848419 11479.909963 14054.079415 20591.036092 18513.238973 15352.037275 13167.651729 17534.031535 18391.501693 21564.140625 20815.306695 16420.567804 19819.928433 19709.815515 11319.547867 4852.243127 13951.897012 14374.621764 20207.138676 12872.117293 21507.008760 17576.880765 14894.842264 15960.479027 19880.404816 20195.936044 17679.461411 18979.885509 8284.297796 18230.624728 12424.599734 17079.995817 19739.321561 17958.225137 21615.680314 16695.376459 19069.342819 18926.133043 22092.896916 18485.511886 18265.758691 17999.626525 13530.616966 13149.451207 16697.438313 11320.024321 18886.523440 13063.836071 19696.152809 20111.665039 21777.367275 21443.319671 20982.403840 18231.303631 11956.811518 15425.823858 20841.599019 15883.837684 17963.664354 21547.099078 19633.986307 12765.060479 20639.454756 19130.245253 21015.247405 17810.688202 17966.830081 15411.477593 13044.582861 12667.217576 17362.344749 12209.425539 18694.783456 14113.924060 17720.471633 19303.359329 17797.968750 16524.269337 18076.609858 12225.711890 12257.549853 13976.753434 11208.799994 11217.157590 14754.811606 17835.255839 21300.013347 15683.830243 19677.494767 18225.159219 16223.607379 12536.050318 12235.963690 12197.882398 21387.892071 11665.083141 19604.031075 21632.558607 17114.053098 19358.693315 20661.131021 19328.008721 16223.218371 16221.723600 6808.016704 16914.383592 14959.355980 19907.823974 16171.554387 14281.924756 16444.843924 22346.868331 21565.055728 19103.165425 21600.353518 16523.184775 9541.624908 11880.126929 13556.925975 20340.369903 19557.518193 18766.828203 10499.211358 21346.272117 12804.355492 16364.709250 8915.286200 13049.050245 12604.464456 14049.271723 8045.825508 19590.670869 16785.859201 20334.097123 15946.016463 18612.499436 16082.325406 11164.725897 17425.840485 12895.943687 15715.793700 16889.275641 13114.816868 16237.244153 18736.269385 17545.105098 15593.286238 14572.463443 15306.660641 12403.214367 18040.549827 17401.418391 17878.990203 17057.295566 21306.325505 21767.981837 18125.604577 1314.225102 5748.395931 4227.403790 17900.067733 13496.475570 18326.261657 13908.010583 21378.098875 19160.495554 15012.276244 3968.749425 15307.703530 14879.921677 14749.174701 18861.142803 17093.397857 19038.034450 19240.697011 14956.235193 8318.511596 9159.558198 15914.082691 13556.476319 15055.262149 20566.020253 17199.224002 14225.522288 15030.865415 9226.681634 11005.945934 15363.832795 16969.699155 20308.517992 18900.080452 20652.056003 19407.164414 14485.936830 11984.505838 15024.166488 14443.471005 15617.614092 15593.489398 16042.482362 15358.689192 21734.291254 6199.925688 9669.576887 8722.190404 14955.450400 19937.298035 16032.109882 12321.894494 17154.371290 3154.385522 15394.178171 15215.179716 15736.929236 14818.469860 14990.350737 20124.811032 13347.565846 9470.207782 5266.378337 14974.372618 16324.097268 16692.641755 18454.154768 14143.422134 10502.213891 12269.620883 11898.396033 12259.880071 19727.946799 15735.708515 12333.595578 12340.028122 10040.440085 17748.662103 3880.061443 16681.660693 17375.056845 12331.777038 12332.912960 5332.087281 14811.129788 17412.645580 13294.494211 12421.327692 17346.796548 1228.016184 13734.317956 16387.820085 18984.916186 14537.007697 19116.780372 10428.067733 17417.357891 12661.921760 13016.276558 14212.555317 12335.479713 1615.999215 15205.339043 13425.409139 17769.634880 11772.612343 8715.977347 16405.726521 15965.397321 13556.852170 18952.788043 6117.430064 12302.883328 11755.251576 8483.384400 10730.561076 11201.321296 10895.556753 10568.891864 14914.285719 11501.990757 4409.035237 10494.752646 14503.623238 1728.270156 11779.285761 9895.600451 8273.291827 13171.679590 13557.495948 15175.812841 8250.849055 13487.856002 5419.146410 9277.051573 10339.881616 12700.831022 9228.061523 11467.742362 17332.804368 4941.899254 8238.773598 13630.256621 8588.105726 14747.698350 6295.762618 6039.176223 10906.338541 14348.325973 12515.377924 13301.400889 12176.073844 12203.542705 12343.883450 13857.980996 10999.996251 15455.795849 6784.020908 14103.620182 8165.959100 8226.515227 12975.734795 10383.312817 13124.458412 12115.549299 12350.761194 12939.088084 13154.382332 13481.188725 13960.147338 12578.373719 17878.276747 15243.091830 12708.066502 12511.290492 13090.528319 13760.439258 14199.269484 9640.970389 12411.344861 14660.263161 16308.788819 12974.563562 17757.057252 18688.910742 14756.867422 13090.251798 12227.605334 11381.135685 13478.792873 12884.014596 12323.612635 11613.359487 11546.711747 10475.830577 12111.099672 12722.546714 16285.219707 11831.516931 12108.719226 17460.340676 18212.584296 15167.070111 13021.795664 11934.783559 14369.909078 15377.367258 11846.375396 12268.325797 14699.282096 12204.012681 12630.623917 13271.939134 13859.499112 16240.606089 15067.485140 12641.721185 12604.963850 12560.177358 16109.963966 13304.899970 21065.214655 12554.329046 12793.231539 12303.985720 13011.747138 12033.916478 12287.957154 13683.706713 13314.125367 15495.603665 13647.118735 13290.490427 12933.098199 15000.102838 15140.588483 12652.157637 12287.224268 12179.490283 12631.309338 12054.537050 12206.045209 12444.830510 12316.095143 14735.240437 13454.436885 13628.375409 14034.101276 13393.593974 13673.301851 14339.661780 17236.291509 11486.032620 12119.169783 13510.474277 14098.730840 13651.517033 13072.159477 12941.558696 13591.154612 15620.938836 13175.508816 13274.316024 12704.096086 13946.148107 13247.597081 17756.689798 12065.974656 13200.196883 12525.691268 13476.290015 13295.708635 13505.104852 14530.134864 13160.620811 13761.527386 16327.600157 13153.171214 13835.863406 14599.519222 14077.479193 13672.597094 12363.701954 13201.378051 13363.418159 12812.258560 13434.109527 14467.755651 13566.835017 13825.181972 12340.639554 13573.535387 14457.077550 14242.351045 14591.155664 17982.533392 16709.954684 13810.944772 12045.589519 13423.989781 12284.348242 13197.527841 13483.527457 12634.683124 13690.916104 15584.800596 16767.619050 14021.260090 13303.376056 13727.314927 13449.478971 16255.139611 12600.141661 11884.333781 13287.961827 13053.106573 13407.790689 14067.131818 13872.994995 14982.160269 13316.991764 13468.107190 13039.908796 14444.838636 16005.015606 13364.107780 14171.017940 13280.553921 13139.945742 12834.282081 13179.766432 13143.776870 13352.903949 13502.681313 13776.428751 13118.744822 12956.999032 13085.336975 14303.212155 13458.874351 13336.651541 13513.025938 13046.590356 13302.906560 13134.821954 13257.122966 13022.101362 13478.257228 14422.153117 12921.349333 13201.489804 3011.430928 11801.918861 13715.851599 12691.574552 15000.275926 13341.352756
</DataArray>
<DataArray type="Float64" Name="Velocity" NumberOfComponents="3" format="ascii">