<VTKFile type="PolyData">
<PolyData>
<Piece NumberOfPoints="2186" NumberOfVerts="2186" NumberOfLines="0" NumberOfStrips="0" NumberOfPolys="0">
<PointData>
<DataArray type="Float64" Name="Pressure" format="ascii">
 26058.717383 26421.653811 26262.471204 25518.628462 25094.589794 24903.361512 25108.326466 25501.981485 25326.038722 25354.540027 25452.332039 25316.403958 24766.845385 25192.045156 25527.278590 25252.237860 25227.738125 25948.393701 26061.582213 25991.784302 25889.425209 25983.676571 25782.830239 24980.010705 24942.016891 24984.704395 25993.739876 26263.422696 26632.429843 26925.046205 26714.644934 26220.171799 25828.843047 25809.909521 25927.889483 25799.897592 25589.027663 25382.049318 25488.769560 25827.888537 26130.152184 26142.686419 26010.038133 25843.450954 25641.871324 25806.655810 26192.032858 26377.030457 25963.638364 25645.771224 25645.052175 25566.639156 25104.663556 24929.312397 25737.326470 25823.877038 26031.468830 26277.675426 26367.524751 26159.714955 25850.651059 25863.098787 26223.572227 26577.662811 26657.165143 26420.785703 26059.502265 25862.330608 25957.522596 26045.842827 26046.544745 26115.184155 26226.142597 26356.087101 26626.656597 26851.769321 26785.710207 26525.351643 26212.796393 25927.835344 25499.813099 25004.722950 24850.540505 24984.704395 25032.372733 24850.899642 24461.721683 23927.075841 23298.008482 22702.573361 22308.633277 22008.337762 21646.894292 21483.096072 21467.481387 21414.407007 21186.412335 20969.784839 20621.679111 20031.653007 19281.655531 18714.885903 18677.219216 18474.302183 18373.396842 18231.901727 18042.040648 17714.575553 17381.485221 17224.456752 16989.022047 16516.636361 16188.339824 15807.945322 15421.856484 15134.457662 14924.939789 14694.787307 14356.256580 13956.027279 13913.818357 13753.068246 13499.348444 13249.330803 13075.994171 12986.210169 12816.371805 12649.206043 12562.086802 12676.213685 12148.373771 11858.576791 11798.171302 11527.298257 10987.583986 10168.114842 9919.229224 9892.283265 9926.818077 9986.105734 10067.654665 10022.942583 9845.813159 9777.152783 9896.947508 10035.581428 9933.347343 9795.352302 9768.800006 9758.535615 9201.593526 8340.851178 7770.167906 7409.463630 7103.804527 6676.181144 6088.942407 5646.695553 4880.313687 4358.779781 3842.564715 3252.129879 2761.184233 2516.247610 24929.312397 25135.374834 25487.047117 25228.265037 24472.011131 23668.841436 23045.235469 22535.011401 22125.780382 21885.126804 21779.236910 21658.292778 21532.883294 21434.454481 21237.121943 20806.912823 20156.418480 19513.070504 19158.699185 18997.529621 18638.159960 18315.953495 18220.079929 18126.174257 17769.267616 17377.768928 17225.141024 16988.606629 16487.463890 16151.080609 15854.639871 15528.809056 15231.051383 14990.900328 14732.015026 14454.354294 14176.540815 13932.047450 13712.408174 13511.600246 13317.130083 13099.809502 12897.702157 12592.529273 12326.456814 12309.028011 12240.890273 11979.395795 11695.385813 11438.481847 11136.725116 10652.677445 10157.899632 9930.358697 9884.744008 9909.769083 9971.201665 10008.998063 9916.585197 9754.460499 9634.581188 9612.067860 9629.444586 9563.389449 9495.337579 9439.812167 9163.065005 8603.852088 7989.045386 7500.402294 7067.451873 6609.102986 6180.459730 5735.508586 5202.344339 4633.144233 4075.442340 3564.617237 3118.365886 2736.163630 2582.952592 24850.540505 24802.830076 24718.668188 24475.218705 24134.253255 23818.949170 23542.913857 23238.707863 22874.546421 22495.302638 22113.480630 21760.197114 21437.671388 21139.758193 20847.063949 20524.763348 20156.315336 19806.656701 19582.969290 19378.440027 19044.933445 18593.485566 18232.772778 17983.193654 17687.097138 17377.275556 17150.717285 16943.003900 16627.603843 16256.981698 15903.493561 15595.114596 15359.241617 15162.562945 14921.974609 14644.453605 14402.119276 14176.716010 13922.639983 13645.842489 13371.519298 13122.493687 12896.038829 12675.631115 12451.893808 12277.917700 12129.141541 11935.998188 11671.935950 11372.535255 11074.603486 10741.706708 10379.880651 10098.745254 9963.354341 9920.739205 9921.558625 9933.764766 9898.058155 9794.295081 9661.740903 9541.577520 9444.157649 9351.619323 9251.988664 9134.520136 8935.148427 8591.697951 8134.567523 7648.523151 7181.764418 6731.206581 6288.001822 5839.568574 5361.964051 4855.731867 4345.122206 3857.215445 3412.305358 3020.407211 2722.377003 2624.138523 2516.247610 2310.229726 1998.142935 1766.129753 1614.508961 1490.238798 1360.758115 1259.835553 1181.823600 1130.894180 1106.557379 1090.546704 1079.285351 1068.564172 1059.005370 1050.710016 1043.576897 1037.442359 1032.118131 1027.404817 1023.097850 1018.986250 1014.832810 1010.270907 1004.731051 1001.207172 2582.952592 2478.605019 2299.274688 2051.757172 1827.116598 1652.453730 1518.007646 1402.927514 1300.597223 1217.233744 1156.053025 1119.786889 1098.961149 1085.446376 1073.973340 1063.938883 1055.223785 1047.695718 1041.204590 1035.585094 1030.661829 1026.254496 1022.182695 1018.270237 1014.351014 1010.292657 1006.166183 1003.296657 1002.205867 2624.138523 2568.988363 2463.462970 2283.849907 2059.010454 1844.110892 1666.116115 1526.008879 1409.488542 1308.321935 1225.389974 1164.598510 1125.382277 1101.918515 1086.324628 1074.129132 1063.896594 1055.125897 1047.582195 1041.086766 1035.465710 1030.540612 1026.130577 1022.058277 1018.161236 1014.318527 1010.521733 1007.010701 1004.303910 1003.035258 1002.738996 1001.207172 995.544040 984.928118 974.275538 963.298387 951.733203 939.513051 926.622912 913.068439 898.865556 884.036664 868.608890 852.612997 836.082575 819.053354 801.562620 783.648700 765.350517 746.707204 727.757765 708.540795 689.094240 669.455194 649.659736 629.742797 609.738063 589.677894 569.593276 549.513788 529.467595 509.481453 489.580734 469.789461 450.130365 430.624947 411.293553 392.155465 373.228997 354.531606 336.080008 317.890306 299.978130 282.358781 265.047385 248.059058 231.409077 215.113060 199.187153 183.648225 168.514070 153.803612 139.537124 125.736443 112.425193 99.629014 87.375793 75.695887 64.622363 54.191221 44.441621 35.416107 27.160820 19.725707 13.164712 7.535965 2.901943 -0.670381 -3.109407 -4.338813 -4.277475 -2.839433 0.066119 4.534797 10.666949 18.567519 28.345871 40.115539 53.993923 70.101900 88.563373 109.504724 133.054182 159.341100 188.495123 220.645256 255.918826 294.440328 336.330171 381.703320 430.667859 483.323534 539.760430 600.058303 664.288148 732.521231 804.862576 881.566434 963.416066 1053.413588 1156.519553 1217.575859 1002.205867 999.648846 993.462402 984.249614 974.115130 963.272488 951.747348 939.538983 926.651966 913.097803 898.894219 884.064194 868.635054 852.637647 836.105607 819.074695 801.582221 783.666534 765.366574 746.721489 727.770296 708.551602 689.103360 669.462672 649.665623 629.747151 609.740942 589.679361 569.593393 549.512619 529.465204 509.477902 489.576083 469.783769 450.123688 430.617336 411.285057 392.146127 373.218857 354.520696 336.068356 317.877933 299.965052 282.345004 265.032910 248.043877 231.393175 215.096412 199.169727 183.629978 168.494950 153.783558 139.516064 125.714294 112.401864 99.604403 87.349786 75.668362 64.593184 54.160244 44.408692 35.381062 27.123486 19.685901 13.122245 7.490638 2.853551 -0.722046 -3.164560 -4.397670 -4.340255 -2.906354 -0.005159 4.458952 10.586331 18.481934 28.255136 40.019487 53.892403 69.994788 88.450568 109.386155 132.929817 159.210942 188.359222 220.503711 255.771788 294.288008 336.172838 381.541293 430.501468 483.152988 539.585373 599.876361 664.090185 732.275808 804.464757 880.664985 960.825227 1044.456304 1128.552232 1187.991589 1211.449922 1002.738996 1001.797243 998.510306 992.135133 983.709566 973.911103 963.186599 951.699045 939.502608 926.619719 913.067463 898.865257 884.036573 868.608862 852.612989 836.082573 819.053353 801.562620 783.648700 765.350517 746.707204 727.757765 708.540795 689.094240 669.455194 649.659736 629.742797 609.738063 589.677894 569.593276 549.513788 529.467595 509.481453 489.580734 469.789461 450.130365 430.624947 411.293553 392.155465 373.228997 354.531606 336.080008 317.890306 299.978130 282.358781 265.047385 248.059058 231.409077 215.113060 199.187153 183.648225 168.514070 153.803612 139.537124 125.736443 112.425193 99.629014 87.375793 75.695887 64.622363 54.191221 44.441621 35.416107 27.160820 19.725707 13.164712 7.535965 2.901943 -0.670381 -3.109407 -4.338813 -4.277475 -2.839433 0.066119 4.534797 10.666949 18.567519 28.345871 40.115539 53.993923 70.101900 88.563373 109.504724 133.054182 159.341100 188.495123 220.645255 255.918823 294.440317 336.330137 381.703208 430.667496 483.322350 539.756572 600.045728 664.247161 732.387625 804.427048 880.145998 958.796123 1038.101868 1111.976788 1170.608107 1200.320456 1208.067981 1217.575859 1291.140858 1424.418676 1552.181320 1678.422807 1806.240191 1936.205915 2068.295532 2202.314002 2338.039368 2475.281186 2613.918606 2753.938726 2895.482498 3038.899855 3184.810566 3334.160023 3488.249608 3648.712571 3817.405918 3996.208385 4186.771904 4390.351963 4620.431396 4873.803188 5144.466845 5767.711058 6288.972506 6817.173185 7876.525303 8505.470211 8975.904623 9997.766831 11005.480559 11809.287159 12652.880173 13328.030937 14610.976427 15950.278555 17109.936929 18332.540671 19503.892340 20529.238673 21517.697494 22460.576139 22810.941271 22970.388817 23576.059574 24450.358415 25390.180722 26058.717383 1211.449922 1243.198808 1320.600565 1434.036522 1554.721310 1679.111183 1806.383573 1936.193857 2068.244792 2202.259170 2337.989269 2475.235844 2613.874153 2753.888566 2895.417336 3038.807565 3184.676505 3333.968528 3487.987812 3648.378684 3817.027190 3995.882345 4186.745315 4391.102186 4614.293474 4876.906782 5201.664381 5707.684130 6249.437317 6847.243815 7699.134203 8396.927008 9024.576635 9909.492410 10824.766015 11699.586731 12546.367795 13411.472423 14659.747346 15917.897587 17034.486748 18187.763230 19360.337796 20481.782803 21476.474143 22315.991941 22883.049052 23148.608615 23435.670621 24045.604401 25064.183357 25935.157844 25993.739876 1208.067981 1219.527028 1260.053132 1338.835717 1441.306452 1557.280846 1679.998050 1806.725150 1936.355300 2068.341545 2202.328176 2338.043735 2475.282533 2613.919027 2753.938877 2895.482618 3038.900154 3184.811574 3334.163483 3488.261328 3648.751585 3817.533452 3996.617525 4188.056481 4394.337586 4621.067559 4888.479783 5234.636923 5680.242849 6218.042029 6864.224444 7592.992186 8315.140161 9068.607731 9919.093875 10807.758644 11678.881204 12516.471524 13481.055492 14652.320866 15849.211135 16993.912352 18126.189184 19249.309729 20315.758071 21276.437431 22134.704964 22923.378272 23652.650444 24344.421619 25006.532364 25612.319164 25901.430006 25812.680078 25737.326470 8600.789874 8683.823872 10875.390095 11567.515830 12899.362655 12980.482612 12879.524665 18557.182587 15075.217069 10975.729642 19624.899147 20136.837390 21224.981042 22609.658178 22711.102222 21755.421855 23010.155081 23472.318969 24272.151498 25856.634957 10807.451327 15674.379443 10471.833925 16999.420856 13238.772551 13029.700590 13695.058973 17464.963195 17944.033436 18392.372809 18596.656857 22265.725768 22996.882818 22753.253152 22902.477328 21375.207066 23984.180102 22889.985020 24674.857333 25470.878786 14249.145840 15839.819027 11745.413756 19163.963404 13708.963878 15934.367222 16439.364175 22556.133005 20110.549310 20446.108853 21530.342367 21789.206896 20859.360106 22723.519498 22506.750093 22394.117102 22844.626200 23872.130280 25206.164845 24416.808532 18607.499171 19829.985350 13704.601613 16892.301434 16471.618203 22525.765708 14617.103624 20355.116091 21155.326896 22400.557746 22558.616121 24519.899303 23235.401383 22575.140564 22302.405891 24286.500988 23513.989213 22366.680847 24248.887002 23576.125232 19679.851163 22326.048250 14511.627353 16246.381609 22108.804902 19179.654910 14572.765179 21070.566744 19582.475795 14911.896419 22722.509226 21217.437594 22269.774709 22792.347977 22554.397102 23828.962331 22730.009233 23408.778927 23359.193914 23867.873615 12122.807375 18032.175823 12845.239223 12810.920166 15461.575256 16754.069430 19191.114998 22905.584635 18698.510021 19783.164026 21201.146205 24656.377508 17837.679219 18404.026174 22428.778141 23305.383382 22557.766408 24094.183262 24091.669839 24674.863641 19590.716456 15462.256260 17840.429442 18132.492458 13767.186708 22188.007631 22449.750448 22169.051376 20743.925729 15299.436328 21800.978009 21712.501066 23161.208291 22576.382040 22172.663439 21785.824989 22910.461612 25699.498636 24918.214946 24639.472889 17153.564389 13392.732520 14687.905108 16722.196470 16928.617772 14099.381982 16212.186646 19520.199157 21181.533090 16436.182885 22653.487949 19296.841399 22300.246028 22598.536890 22431.489319 23921.729161 22279.073973 24587.218995 23611.263137 25361.460832 13812.374833 12746.460803 14249.785225 11976.991643 16779.603633 13789.097028 18126.166662 14352.840274 14191.143565 15217.358806 16131.974546 18249.328241 19821.527998 21959.066174 22019.765697 19381.047056 22631.246090 19291.610358 25423.094075 25999.051904 13205.528804 15157.563700 19343.901533 13699.788297 15065.062622 17731.583100 13457.507593 13721.198642 15301.125329 21593.925290 19140.212173 18088.359884 20960.985349 20830.999859 19409.113639 20548.844700 23561.466052 24877.929984 20568.369217 24831.697911 17073.672859 17665.370547 14045.956651 16045.203432 17710.309933 19901.029023 15885.401773 16234.753082 17726.966122 17932.110789 15520.342483 22798.191011 19377.342310 25093.682885 20277.412252 23498.711209 20769.473224 23258.204007 24851.175592 24878.985414 11153.144798 11484.306852 14145.021689 16321.863171 13693.904315 15706.316446 14401.743314 12361.158445 14615.569183 22735.226975 19278.386619 15435.676666 19532.779237 17987.587297 17753.547325 23456.673877 22813.457305 20268.678268 23141.578886 24190.729208 13131.595552 11804.593150 13856.693770 15216.484610 16111.566418 13677.676194 14280.466475 16940.553017 15171.645732 15663.455904 13770.225269 20533.766054 15041.418342 20430.071640 20431.442221 19256.114782 23693.163852 23892.781684 24849.712928 24267.345972 11076.306524 11570.367469 14714.292667 12003.459384 14655.331309 16365.954424 14984.703627 16158.595595 12973.994573 18243.292811 17017.354642 18270.769160 24251.797239 20229.449238 20314.437421 21529.558860 24796.156179 24407.626290 23460.029519 25181.603667 15574.726722 11321.133377 11647.446656 12546.860130 14884.733363 17287.719118 13292.260869 18362.662032 18259.133533 15975.735799 19764.292251 16904.657806 20804.879666 22650.201064 22814.720020 16385.358772 19279.281727 26119.081747 23656.191240 25151.649704 12747.412890 11038.168546 11241.637032 11539.797415 16126.152151 18369.961605 13066.533110 11928.163054 16949.706814 12610.342456 16321.779726 14411.222292 22650.193160 21554.896903 23894.948562 22642.424104 19239.635432 26104.336254 21500.581958 25566.225248 16038.544253 11497.175149 11184.126313 11347.069927 13504.146287 13020.344701 13639.371897 16138.991562 17144.472698 14288.765258 12866.999642 20776.238014 18769.077951 22634.146104 17378.470337 22763.291229 18405.402669 21376.643574 26174.567374 26233.247128 12127.426276 10693.085772 10867.446147 10948.344214 11256.256410 12375.836048 13450.334261 13079.761356 13863.233347 13671.660898 20813.960055 15333.787919 15479.614802 15028.118238 21569.228153 19009.359650 21493.992836 25026.280109 24732.564674 26194.029993 10701.792159 10702.108400 10993.953782 11328.627324 11344.588402 11384.539516 12938.032704 12884.392414 19675.757916 20643.747261 18137.169629 19405.156093 24190.512307 18465.315025 22362.307757 23411.924010 24463.898058 23359.791414 21502.077493 24394.174488 10698.570429 10960.600890 10839.124119 11174.904663 12084.797965 11278.471859 10925.412021 17992.232666 14122.062553 14004.094760 18583.196192 16980.375598 25233.216600 21798.409030 23802.573745 22060.814517 24902.058935 25929.531100 25467.623785 24259.035978 11117.909069 11526.987906 11192.244408 10998.547113 11203.127635 12497.899987 12743.098233 13685.880325 15102.850102 18528.907118 16428.023327 16260.955771 17336.811511 23374.350954 17456.077460 19712.168646 21799.346078 22586.155615 23526.372104 25671.346231 10232.593897 11786.788936 10931.969841 11176.927132 13560.788381 12180.085915 13401.793282 15382.719645 12991.855077 13776.653413 21650.840113 22691.189543 21837.526820 21884.885249 22472.469783 17591.366244 22061.702074 20949.326983 25388.566963 25622.171133 13103.840827 11097.398590 13926.970158 11234.296984 12228.554546 11282.133133 13763.363519 12505.488168 16750.820882 17014.611437 15746.909601 21841.600391 18311.620221 23404.170314 14587.843157 23384.821450 26231.365677 25004.053835 25418.490694 24905.400760 11395.541765 10960.899631 10886.014591 11234.960172 12118.158675 11228.216955 16082.759072 14214.818067 12294.066298 18465.635313 20953.869371 19516.670083 20951.379795 22729.359923 23982.135789 25329.839023 25092.711500 26117.946198 24719.427024 24995.085933 14265.520972 12084.863372 10226.593059 11144.516964 14702.013566 11678.458293 12134.375709 15649.795525 12589.075718 14195.144710 14792.037750 20754.527642 14553.897833 15633.944169 21805.698535 23479.342835 24913.137030 23841.898953 24395.521652 23883.918906 11647.906622 10746.640921 11836.940646 11159.831989 12549.020573 11471.857535 11355.780644 13563.651042 14103.251655 16627.788860 15724.304189 17033.960512 21170.274085 20668.096587 15002.504404 22252.101862 21704.777354 22437.977847 23616.600414 24994.132932 9898.653166 10027.520148 13388.577206 11618.767206 14283.027694 14714.190846 11619.681009 12161.159595 13453.202723 16917.029340 14584.590569 16738.368316 16268.626972 19675.415396 22806.667462 22611.369453 24116.637608 26189.534386 23760.721812 9860.224773 10427.938399 11076.312034 10409.708351 12200.181259 12911.279859 12211.447600 14197.889429 17751.980398 14541.430746 15388.607638 19672.116637 22342.243109 15728.333194 21968.026754 23380.784666 22441.152466 21795.665371 23434.521349 11062.211635 9472.567303 11959.111062 10821.527509 12743.354239 13217.412250 11617.959018 13171.230041 15261.757815 16609.420168 19558.628346 16836.106938 21594.674597 13914.793284 22633.088903 23731.001722 22586.430610 22807.408318 23053.892091 10848.448439 11350.501135 11113.103679 10701.809278 12507.507003 11807.732595 14946.027298 16112.442876 15704.183116 18148.520026 16363.651294 15055.559420 18178.656230 19736.075138 20525.627487 19450.361397 21376.834104 21989.771192 22823.346946 11089.661847 10540.783267 12177.222769 11711.097658 10988.716597 11085.968045 12671.758283 13906.484472 12015.154103 12749.545173 16196.145905 12593.717715 18946.480048 17095.359037 17206.404157 22166.297890 22451.842090 22519.599011 10272.767300 10833.190095 11094.038381 11092.909202 12666.883720 12195.289144 14784.903847 12622.654104 17788.785465 15249.845569 14562.630851 20053.735957 17707.769697 21504.679096 22423.465906 22386.660600 21693.153638 22280.954136 10412.802345 10322.554183 11361.463333 13477.035774 11340.260911 15633.024173 11495.459208 13930.072400 13310.231571 17560.915293 19076.492172 20407.405907 16932.458428 22436.282601 17129.370578 22301.536495 23956.270401 11458.691189 10114.305678 10613.288575 11513.483445 12027.566501 12282.633263 17956.997594 11588.985226 12380.822188 17115.067939 14663.251430 19314.606090 23176.763489 20695.301871 18258.389333 21617.340875 21705.053230 11441.578539 11153.684037 12274.916982 11035.142033 18627.617476 21227.758863 14761.133106 14710.593304 14631.453064 22688.852602 14473.859069 22338.402940 21537.670558 22456.910405 21131.115928 20428.995776 21418.934450 21422.143155 12203.540223 11672.951858 17661.380346 10591.968030 11180.178945 11441.668356 12198.780539 15439.064555 19098.821396 18569.292565 22111.571862 19446.877494 22831.524938 20624.398202 21590.596112 20688.610451 11424.917160 10999.490046 13978.199912 11870.602116 11904.560311 16853.400797 13634.412029 17763.010252 18312.739106 13092.629126 19891.603052 20563.575923 21920.784076 20309.126660 14898.419429 20727.827128 11982.785602 10830.767279 12024.260568 13378.006964 21305.107522 18696.282663 18623.520176 16369.821236 18100.564387 13516.101785 16090.819576 21112.646812 19991.697561 21893.149268 22505.162123 20267.089583 12239.433286 11798.622786 11575.946323 16528.731705 12193.417924 12221.528457 19613.033398 12315.948502 12742.715088 19016.227498 18009.685205 22764.791194 21287.588549 21469.848005 20022.217087 10307.964396 11855.196760 11869.408601 11340.428738 14047.341043 11780.149853 13676.045344 16229.833045 19934.735428 20138.169650 18519.721492 22075.648595 19110.556171 16693.141304 19301.518594 11887.116583 10739.622217 11620.926502 11688.633270 13501.463778 14567.631511 11583.414434 16125.057149 21206.413059 14198.175009 22541.338631 15541.291760 21340.641318 19665.032862 18766.971713 10440.720827 12264.442657 11877.493121 11080.750590 13943.261208 12747.027791 13339.607913 15709.789659 13707.466150 14690.922034 20132.654860 22796.263717 20739.051822 18404.416548 12643.286668 11636.810000 11532.247466 18322.559182 16530.755296 12637.024584 11165.141170 15809.527316 17206.962093 20019.846089 19931.341105 15549.717031 19741.025370 18472.260959 11233.710909 10609.059710 11996.054879 12628.432668 18171.866508 11906.835791 18797.805962 16675.319417 12722.279098 13079.890502 19048.253004 20584.705364 15508.016216 18323.978648 10371.068509 15439.697797 11441.811613 14858.399581 17525.689411 15465.306805 20561.579096 16125.011248 18085.287996 17453.854083 21132.859624 18129.339681 18061.011895 15989.076583 11982.420518 11884.609248 16079.340840 10813.500994 17711.857185 11386.394494 18660.305566 19014.944787 22397.880790 19848.786110 19268.411456 17849.475791 12536.357983 13286.691166 19304.198241 12902.256720 16022.015418 18295.524513 17764.091935 12141.556679 18845.080060 18185.743889 19737.412583 17171.867552 17618.603207 13501.491390 12319.269168 12322.553292 15995.395399 11678.091676 16063.446773 12069.549940 17119.948492 18395.987277 16343.664974 16047.777616 15583.311554 12031.538314 11531.499832 12247.584297 10323.394013 11370.876728 12926.869781 15550.099077 20234.823194 14174.562004 17951.923324 16624.207651 17142.400166 12600.966050 11429.911331 11817.837920 18773.284701 11938.408161 18278.443712 18794.213850 14359.085071 18394.620825 19534.695383 18156.297345 17140.670130 17143.933452 7647.191615 15620.732162 14961.956757 16780.971776 14030.558757 12296.638168 14585.981816 21831.510258 18328.020077 16671.944383 18549.190352 14401.613108 11157.688600 11871.235381 13676.181604 18925.740159 18190.662243 15966.881637 9994.817549 20872.270751 13067.851755 15896.193441 10064.229018 11636.188993 12093.974658 11397.658272 11037.158793 17874.065453 15999.002110 19020.649172 15542.144791 18055.013039 15688.084081 10093.753071 15941.879536 12019.886106 13926.347430 14212.789041 11226.065096 14964.500359 16763.220123 15584.736489 15124.013701 13131.421639 13278.385056 11990.820959 16500.876052 15994.707265 15406.407009 15362.533213 20326.375521 20973.479794 16504.058755 1240.310568 9833.373208 6665.773476 15186.378522 13558.860592 16596.140817 13777.569220 19807.481426 17762.291523 14768.569594 5406.422084 14014.990245 14106.724843 13647.316771 17452.100066 15067.329760 17435.145854 17391.871250 14522.534134 10169.223291 10396.498401 14388.344800 11592.708471 13873.523361 18236.900396 15236.096177 12583.098350 14547.945803 10708.303004 10562.156608 13678.663362 15635.546090 18680.961075 16398.800929 19441.603379 17424.271734 13942.374153 10657.711306 13546.881156 13114.361322 13959.354416 13831.768659 14552.628785 15067.780845 20845.300791 8059.325792 10868.365051 10221.644575 13107.990251 17500.796765 14469.253333 12557.051787 14838.140109 4248.258352 13628.759318 13897.100726 14133.124107 13082.273590 12813.582235 17411.714750 13249.965949 10633.989888 8933.696702 12016.515679 14884.231252 15378.242123 16670.260933 12343.982935 11172.922885 12679.741611 11219.897137 10337.906281 17134.253830 13671.870554 12908.372057 11985.479788 10247.365598 15589.240055 7315.444167 14796.039916 15142.693695 12899.582083 12899.898932 9580.433098 13253.666156 15553.935951 12130.415025 12550.383499 16263.476176 1138.033535 12522.578632 14867.979513 16180.907689 12509.741328 17790.054055 10139.046455 14885.451179 12838.272475 13019.127977 11716.803327 12697.280113 1610.104259 13948.247752 12890.236034 15736.765137 11927.842299 10121.761894 14749.112979 14310.804303 12895.065182 16054.128013 7787.258723 11989.332743 11569.398603 10552.647821 11872.685043 10149.559480 10555.623593 11468.929615 12968.224069 10609.532945 8231.200397 10072.215388 12784.694045 1740.297513 10361.762414 10323.143180 10022.089147 12044.316222 12326.971984 13927.670593 9880.547334 12195.765436 8640.984556 10144.804132 10055.264374 11844.904833 10009.123697 10310.389020 14965.723211 9455.715564 9885.732307 12540.678002 9934.039079 13464.933272 10230.700277 10132.528640 9252.904049 12269.593581 11453.862895 11736.232417 10566.955986 10706.787671 10961.824820 11832.706509 10646.543341 13473.832067 5057.295568 12481.945146 6350.750330 6457.658768 11806.917669 10089.712719 12499.810391 10580.020608 11576.212788 12320.814842 11892.263033 12414.258514 12982.321595 11224.485842 17391.973688 14205.570245 11498.515891 11299.790494 11810.111514 12320.791405 13014.306589 8981.761295 11987.320208 13342.318176 15547.934485 12031.510011 17362.059527 17582.496425 12695.584554 11957.060984 11481.936589 10692.035416 12545.362179 11837.522402 11085.473744 10769.497153 10631.563578 9920.504720 11080.837354 11566.095784 15147.994340 11152.569825 11516.132724 16712.455190 16755.541433 14333.116179 11063.409745 10935.992919 13623.093996 14969.189084 10556.288005 11228.919096 13270.882626 11765.163955 11454.011997 12262.138492 13332.260085 15195.305745 14329.460889 11423.915428 11945.737274 11436.158639 15370.172073 12232.063987 20989.158030 11396.936760 12015.595360 10787.580592 11728.845916 10716.467892 11029.489033 12781.446212 11414.908325 14320.511893 12759.220589 12611.463670 12356.173812 14372.467010 13881.596583 11555.204942 10867.138627 11228.330594 11078.856272 11481.183371 10979.132926 11045.513052 11240.473262 13308.740905 12783.712023 13350.996327 12922.727691 12401.466554 12361.849249 13385.523607 16323.487039 10312.338544 11528.422203 11291.985118 12820.813101 11993.486486 11223.713835 12144.370315 12320.684064 14963.013113 12053.871726 11533.625116 12008.876104 12681.014002 12698.489681 16515.699090 11253.574615 11245.380567 10807.915070 11387.712567 11151.431905 11593.215015 13328.304654 11211.029354 11941.824077 15441.300531 12121.121249 12823.804303 13249.492180 13305.122047 13083.165565 11032.157789 11310.730277 11096.517447 10857.023365 12128.064031 13512.066766 11749.210841 12152.691821 10773.633306 11771.804024 12529.149601 14148.343662 14443.296256 16934.127605 15617.433626 11632.744870 11102.236063 11115.598402 11361.912970 11234.585009 11205.189714 10756.320988 11974.816979 14970.570850 14826.582264 12503.828620 11274.061248 12303.064847 11766.736945 15775.181197 10709.441417 10966.095284 11780.184274 11237.863570 11186.921050 12200.572091 11608.252485 14213.260682 11277.402754 11306.777738 11438.651644 12997.409240 13600.957523 11501.151799 12315.488414 11221.769942 11259.587095 10976.722346 11367.320787 11186.268932 11303.083168 11150.817574 11497.652214 11113.656758 11160.329575 11095.321565 13016.600311 11312.448084 11427.097063 11559.283693 11153.281336 11307.087087 11268.039134 11183.056147 11209.018474 11381.795040 11936.617684 10753.989006 12214.400860 3846.881213 11672.634914 11015.041079 10520.048982 12962.281668 11174.947086
</DataArray>
<DataArray type="Float64" Name="Velocity" NumberOfComponents="3" format="ascii">