<VTKFile type="PolyData">
<PolyData>
<Piece NumberOfPoints="2186" NumberOfVerts="2186" NumberOfLines="0" NumberOfStrips="0" NumberOfPolys="0">
<PointData>
<DataArray type="Float64" Name="Pressure" format="ascii">
 27195.879446 27168.541639 27428.228744 27378.951406 27271.380809 27525.217630 27663.306194 27986.363204 28425.118975 28176.281395 28958.511583 29554.787349 29571.061426 29523.167174 29776.477904 29683.493234 29587.728119 29506.017852 29221.848580 29039.091847 28264.632263 27049.900746 26856.589310 26755.418525 26626.618055 26498.880374 27918.236336 27753.337782 27530.578958 27611.986815 27734.600830 27649.484546 27756.063175 28275.090703 28597.687585 28533.897159 28377.105178 28750.371092 29450.437985 30200.270165 30825.236310 30989.474767 30629.687345 30250.583954 30203.216523 30113.245154 29523.272984 28796.397233 28125.514433 27669.404475 27167.359907 26683.230401 26447.905443 26433.745600 27907.837720 27986.302769 28134.501170 28279.948035 28426.243194 28568.368121 28502.853383 28379.667156 28580.482926 28879.121949 28876.261624 28799.007373 28870.328213 29269.770050 29927.501726 30570.978540 30771.109915 30462.972138 30051.032366 29758.848663 29481.087022 29079.850762 28585.313804 28154.719998 27723.424325 27284.169393 26889.052423 26504.736885 26359.051213 26498.880374 26285.517382 25971.420575 25844.069810 25524.272070 25212.275373 25252.655114 25249.957534 25058.701921 24371.532870 23742.853646 23400.567099 23068.393770 23033.641102 22518.834334 21677.794908 21168.970250 21105.980306 20665.456587 19931.049393 19195.247365 18590.553393 18372.241332 17980.155245 17116.568655 16003.459597 15086.299031 14644.363579 14482.868128 14892.541086 14632.515863 14831.533443 14929.023289 14485.909804 13504.794066 12850.456670 12699.163640 12616.226930 12678.742237 12102.060989 10834.272461 9899.086654 10338.451849 10376.526714 9826.247509 9069.904274 8308.798910 7730.469067 7470.250430 7158.498907 7254.118981 7130.042465 6886.341326 6341.707517 6389.915538 7085.312076 7575.240452 7939.727531 7632.063549 6738.538164 6470.454498 6661.109696 6769.125447 6591.846143 6238.871142 5451.707196 4667.981897 4466.201745 4534.589490 5018.698064 5219.442370 4583.079636 3935.257481 2943.483593 2933.079959 2990.153674 3242.262508 3158.743175 3032.292417 2748.708012 2635.738658 26433.745600 26501.876247 26294.811814 25947.944688 25697.001391 25481.833935 25407.738998 25435.937908 25329.988430 25065.227391 24561.751607 24039.208275 23663.890002 23269.676044 22549.699175 21593.394284 20983.476991 20719.582609 20473.583883 20116.799817 19618.277960 19105.620934 18533.367535 17741.163910 16890.710035 16009.660931 15253.254068 14971.568686 14833.059074 14851.395075 14767.897223 14715.377369 14561.409495 14021.845358 13302.689808 12741.238311 12435.411700 12397.218125 12303.804532 11706.834856 10830.258097 10342.489305 10232.104155 9918.512779 9419.986352 8950.341104 8392.735751 7871.898756 7491.086880 7297.534162 7256.757556 7207.322798 6906.382859 6719.040677 6988.671365 7454.414725 7822.260330 7678.985810 7112.761355 6652.589521 6436.071392 6406.354903 6491.898111 6367.387856 6056.483773 5554.416655 4953.281637 4695.266813 4982.435821 5173.837250 4856.582042 4240.236922 3661.767156 3266.126543 3053.778752 3074.148547 3140.353174 3066.271861 2896.794093 2763.730369 2724.392527 26359.051213 26419.195881 26491.912247 26341.745965 26099.541540 25852.779155 25595.090099 25381.444995 25239.825563 25126.859906 24934.104643 24586.622232 24173.636917 23617.950057 22866.232345 22012.117790 21292.050762 20809.198110 20421.984222 19993.207970 19527.190863 19120.080925 18670.802140 18055.879837 17320.727736 16539.055272 15795.396019 15243.281744 14889.830787 14670.840087 14613.373341 14565.690146 14418.950414 14099.859861 13599.651565 13053.605028 12580.294719 12239.179919 11964.194929 11590.321650 11072.435195 10578.483816 10204.918786 9866.069149 9495.370659 9114.858781 8713.469217 8267.008705 7838.342304 7511.141360 7300.681851 7183.593592 7088.645848 7012.293622 7047.359359 7210.812415 7393.161905 7408.760304 7159.240760 6790.156731 6496.085627 6338.052339 6281.807117 6226.165814 6091.460833 5886.726999 5637.172838 5419.904988 5330.886591 5271.935511 5044.258526 4610.777447 4108.134609 3676.272605 3375.028912 3216.512034 3154.948038 3105.577440 3016.805252 2901.405226 2805.273166 2772.972021 2635.738658 2498.767034 2249.417297 2041.645047 1898.098016 1776.340451 1643.259134 1535.191776 1450.620417 1400.038403 1389.380328 1388.260280 1388.100657 1386.182624 1383.299790 1379.511928 1374.674348 1368.635197 1361.282082 1352.547830 1342.400344 1330.813913 1317.688293 1302.517788 1284.264642 1272.942014 2724.392527 2642.024536 2505.086916 2301.821718 2101.454840 1937.238265 1806.130743 1689.142917 1581.414340 1493.320066 1431.821954 1402.511001 1392.645166 1389.890368 1387.657064 1385.054039 1381.829496 1377.761806 1372.670278 1366.420617 1358.925326 1350.139533 1340.054540 1328.691219 1316.101056 1302.424163 1288.391863 1278.551024 1274.566643 2772.972021 2730.637979 2644.817408 2500.520563 2311.743161 2119.375700 1952.113326 1815.294593 1696.928284 1591.146180 1504.474719 1444.146165 1410.817756 1396.754325 1391.167961 1387.961142 1385.080795 1381.758457 1377.635330 1372.493739 1366.190030 1358.635713 1349.790061 1339.659011 1328.309994 1315.935219 1303.049144 1290.867360 1281.328411 1276.634633 1275.389824 1272.942014 1257.858725 1230.411929 1203.945221 1177.684690 1151.003192 1123.781630 1096.020492 1067.756915 1039.039389 1009.920484 980.454843 950.698668 920.709561 890.546386 860.269050 829.938202 799.614856 769.359964 739.233947 709.296216 679.604689 650.215322 621.181674 592.554497 564.381374 536.706406 509.569941 483.008360 457.053918 431.734624 407.074182 383.091964 359.803040 337.218232 315.344212 294.183627 273.735250 253.994153 234.951899 216.596747 198.913868 181.885568 165.491513 149.708958 134.512972 119.876658 105.771375 92.166938 79.031827 66.333371 54.037933 42.111076 30.517726 19.222324 8.188960 -2.618486 -13.236223 -23.700423 -34.047106 -44.312015 -54.530496 -64.737366 -74.966775 -85.252044 -95.625490 -106.118225 -116.759915 -127.578508 -138.599915 -149.847628 -161.342292 -173.101189 -185.137659 -197.460421 -210.072803 -222.971867 -236.147416 -249.580887 -263.244112 -277.097950 -291.090780 -305.156868 -319.214588 -333.164530 -346.887473 -360.242264 -373.063604 -385.159768 -396.310277 -406.263548 -414.734513 -421.402068 -425.905869 -427.840691 -426.742372 -422.044897 -412.941121 -397.816182 -373.501667 -356.048494 1274.566643 1268.002039 1251.960115 1228.483409 1203.443514 1177.555117 1150.983198 1123.793068 1096.039876 1067.777062 1039.058067 1009.936969 980.468866 950.710101 920.718326 890.552425 860.272323 829.938687 799.612554 769.354894 739.226154 709.285764 679.591663 650.199831 621.163844 592.534470 564.359308 536.682471 509.544316 482.981234 457.025484 431.705079 407.043723 383.060789 359.771343 337.186202 315.312035 294.151480 273.703303 253.962568 234.920828 216.566332 198.884242 181.856853 165.463820 149.682388 134.487615 119.852596 105.748679 92.145671 79.012042 66.315113 54.021239 42.095976 30.504245 19.210476 8.178758 -2.627039 -13.243127 -23.705685 -34.050737 -44.314033 -54.530924 -64.736234 -74.964120 -85.247910 -95.619933 -106.111308 -116.751716 -127.569120 -138.589445 -149.836207 -161.330070 -173.088346 -185.124404 -197.446999 -210.059499 -222.959010 -236.135387 -249.570124 -263.235115 -277.091287 -291.087097 -305.156890 -319.219128 -333.174494 -346.903863 -360.266187 -373.096273 -385.202506 -396.364533 -406.330944 -414.816988 -421.502371 -426.029198 -428.000117 -426.976864 -422.480450 -414.001996 -401.122771 -384.283410 -371.093724 -366.808150 1275.389824 1273.039654 1264.622926 1248.270739 1227.013113 1202.921745 1177.369275 1150.906326 1123.751866 1096.011347 1067.754106 1039.038526 1009.920219 980.454762 950.698643 920.709553 890.546384 860.269049 829.938201 799.614856 769.359964 739.233947 709.296216 679.604689 650.215322 621.181674 592.554497 564.381374 536.706406 509.569941 483.008360 457.053918 431.734624 407.074182 383.091964 359.803040 337.218232 315.344212 294.183627 273.735250 253.994153 234.951899 216.596747 198.913868 181.885568 165.491513 149.708958 134.512972 119.876658 105.771375 92.166938 79.031827 66.333371 54.037933 42.111076 30.517726 19.222324 8.188960 -2.618486 -13.236223 -23.700423 -34.047106 -44.312015 -54.530496 -64.737366 -74.966775 -85.252044 -95.625490 -106.118225 -116.759915 -127.578508 -138.599915 -149.847628 -161.342292 -173.101189 -185.137659 -197.460421 -210.072803 -222.971867 -236.147416 -249.580887 -263.244112 -277.097950 -291.090780 -305.156868 -319.214588 -333.164530 -346.887474 -360.242267 -373.063616 -385.159805 -396.310397 -406.263943 -414.735811 -421.406335 -425.919892 -427.886783 -426.893858 -422.542890 -414.575391 -403.240471 -390.171371 -378.703840 -373.462246 -372.708937 -356.048494 -316.467934 -238.836761 -156.456556 -67.015732 32.193688 142.635471 265.498905 401.889126 552.880503 719.526435 902.857298 1103.878807 1323.580516 1562.968022 1823.139463 2105.435268 2411.696244 2744.661875 3108.516593 3509.536445 3956.739551 4462.473150 5055.817783 5753.333442 6281.823523 6849.338825 7330.072551 7789.355693 8667.085506 9351.233045 10028.562582 11416.267534 12480.585732 13791.660811 19385.771239 20599.888365 19487.826722 19719.930936 19635.780367 20058.652895 20899.606200 22078.494811 23326.904793 24115.381107 25047.520447 26059.678637 26598.379247 26973.718941 27172.805493 27195.879446 -366.808150 -347.973768 -303.142593 -234.495509 -155.615244 -67.104158 31.796181 142.112851 264.906398 401.244152 552.189372 718.792378 902.082758 1103.065709 1322.729439 1562.076207 1822.197118 2104.419041 2410.557141 2743.299416 3106.711725 3506.748611 3951.416432 4449.701986 5005.602866 5614.549193 6216.070767 6809.288178 7367.880762 7964.743885 8739.901912 9502.170045 10365.744324 11712.564473 13369.682885 14793.153429 16612.005365 18678.858793 20316.512661 20507.259742 20351.370421 20674.302838 21387.303810 22304.444205 23298.615369 24178.363694 25023.742600 26170.291078 27118.968345 27339.156037 27235.716188 27528.003063 27918.236336 -372.708937 -365.476749 -341.272187 -294.358629 -230.772657 -154.053667 -66.278899 32.418686 142.704232 265.519920 401.895550 552.882465 719.527028 902.857456 1103.878769 1323.580197 1562.966842 1823.135328 2105.420986 2411.647490 2744.497442 3107.969064 3507.738440 3950.916003 4444.046611 4987.968716 5572.092270 6178.412646 6791.656412 7414.017806 8095.985847 8854.237687 9665.236183 10627.683633 11866.072391 13324.996149 14814.258789 16447.707012 18450.630121 19880.890759 20366.408891 20591.760922 20997.702353 21660.422280 22475.657882 23349.545608 24238.777920 25112.101541 25979.708363 26674.986334 27027.982638 27305.163405 27695.871644 27902.227550 27907.837720 9470.888723 9729.894203 10545.186879 10403.644353 13996.846734 17525.357268 19013.019716 19607.656157 18504.663741 11490.784423 21184.964977 21419.103423 23112.641480 24234.899346 24496.683482 23679.267216 25258.431584 25297.742929 26598.586178 26837.778610 10826.971148 15568.815374 9555.037932 18314.880671 12020.477883 14639.650385 14496.553313 18076.447187 19304.456054 19449.803554 19833.285071 24026.081293 24403.148196 25146.067352 24455.867502 23026.646075 26311.964180 26365.647465 26572.464175 26536.321056 15434.511712 16965.854714 11178.049767 20482.603703 14098.059294 17503.256770 18096.258236 25204.057844 21356.567316 22226.667408 23368.428855 23900.039961 22674.458917 24655.592397 25571.216884 26475.318744 26429.075425 24890.929917 26810.047942 26124.948625 19233.185583 21728.608155 16834.247467 17853.171430 17998.818017 24253.993834 16713.333635 22559.552692 22914.502418 24537.283112 24565.751183 27012.563406 24799.870551 25132.643827 24139.071303 26044.393302 26999.859493 26372.032052 26870.126643 26926.759861 21464.937511 24279.404509 11798.353573 16469.892532 23624.269467 20465.023036 16456.867692 22586.005709 20702.197187 14947.875811 24883.965102 23004.437820 24165.386762 24899.665320 24641.907793 25161.932662 24699.927402 25882.611862 26044.600324 26887.309815 11347.883290 19646.958393 13910.914395 13774.102348 15581.934091 17251.886063 21376.436219 25472.330147 19414.692002 21617.215237 23462.204816 27160.334804 18043.453348 19671.193614 24435.006417 25850.921922 24477.770475 26309.282485 26028.681729 27266.152497 21243.000514 16323.685139 19990.392732 19595.347669 13580.956789 24118.927367 24748.269149 24095.524015 22782.471540 17750.281174 23492.106626 23417.771961 25885.740479 25373.566304 23961.327466 23308.642344 25300.825460 27140.867134 27599.587146 27627.965663 20153.552893 15085.017307 17487.133738 19314.652050 18124.799253 15730.289319 15704.009161 20963.276533 22953.924878 18518.107743 24742.122608 21359.734816 24542.899367 24088.256035 24263.694664 25461.640743 24663.902898 27133.015401 26736.865945 28024.683286 14460.378020 12821.361392 16457.549563 10991.035267 18406.609651 14809.599357 19508.046017 15750.114056 15322.760673 17149.954271 16553.611738 19938.139348 21353.034840 23943.510101 23249.027417 20677.667982 24379.151264 21076.524659 28049.944624 28691.923880 11712.747387 17076.680755 21776.580227 13821.451176 16879.712417 19755.322616 14690.875290 16222.446536 16697.538193 23292.931208 21047.181813 20063.661765 22354.327168 22822.172948 20981.853409 22183.945394 26561.110613 27199.346868 22433.837266 28743.099616 18968.065798 20397.171060 13847.033258 17579.429368 20716.165623 22855.446309 18396.332457 18182.883296 19480.373423 20756.940321 18164.009071 24976.579486 21543.670017 27508.447417 22892.232127 25468.439433 22079.311850 25911.530577 28974.559189 27498.086312 10631.026211 10785.769474 13930.694019 18030.084609 13657.733037 17297.429101 14698.667935 12333.057152 17004.552795 25893.920638 21299.197637 17992.411543 22196.312893 19999.550881 19287.049407 26589.217024 24688.151131 22441.348382 25857.208866 28426.732671 14110.317210 12362.520295 14078.794970 15876.904421 16165.458900 13170.004555 15258.572505 19418.877001 16379.044102 17062.941522 14108.140865 22431.785562 18327.414771 22412.014728 23060.274984 21652.136078 26239.138016 26369.857963 28548.488243 28386.382889 10322.844202 11491.306913 16518.220141 12304.222745 15272.878663 18504.437710 16110.512098 17890.161628 14416.777200 20713.251187 19773.976114 21094.076726 26027.570920 22254.457452 22893.810294 24075.469142 28547.701357 26806.510941 26587.261782 28683.410047 12084.122763 10189.991627 12116.914068 12719.262781 14543.831062 20127.851066 13397.901619 20283.720529 20919.555231 15625.574581 22355.952803 18917.585430 23311.170935 25671.717931 25794.553508 19402.354039 21341.917264 28201.416226 26330.007206 28409.992736 9879.504187 10489.483689 10017.101370 10773.306281 16890.127833 21594.110555 15118.003780 12102.913737 18840.826630 13685.771289 18622.488220 16074.201845 25344.992221 24675.604397 26458.804062 24681.040589 21700.869846 26307.252536 23381.393036 28342.396791 13180.047186 11916.686170 10155.131130 10882.010619 15560.360921 13713.789757 15564.596626 17936.472119 19943.557771 15197.051413 14937.141570 24188.965571 22179.277425 25509.191796 20328.138186 25941.681382 21070.840294 24049.368173 28105.152731 28127.126968 11183.676292 11855.998673 10929.830554 10218.141122 11053.693574 11750.810440 14145.303446 13297.100444 16467.896721 14721.129800 23286.684901 17426.197596 17996.900033 16752.463407 24087.706396 21594.497481 23380.751957 26943.973983 25887.249546 28100.675645 8879.117028 11462.906778 10386.943542 12058.296117 10577.194423 11156.718222 13041.088748 13395.828620 21857.586048 23763.810171 21220.419428 21955.648830 26777.371459 20946.170024 25029.323155 26108.209351 26983.388556 25754.452885 24495.931060 26419.198424 11207.857697 11634.628148 11188.759309 10986.323468 12258.629264 11711.828403 11004.255125 18819.562637 15119.419512 16013.877178 22376.345995 18553.805010 27013.688447 24901.906836 26488.097852 25575.536405 27209.717689 27602.167218 27569.850977 26931.959383 7353.486609 11270.361916 10326.769183 10056.604932 11033.258573 12882.320047 13619.850583 15847.978211 16555.815457 18882.491994 19402.231649 18776.629653 19986.694889 26199.877215 19334.036859 21469.388949 24990.214920 25937.754722 26144.170658 27171.726998 5386.579298 9880.816831 10865.849346 10123.329867 14968.827145 12505.372171 14450.514214 16344.337592 14088.128944 14203.163760 23514.183938 25177.439594 24398.187833 23537.835496 26502.424281 20684.218572 24885.034994 22300.611691 27048.960098 26860.800915 13307.462076 10622.993154 13397.862440 10529.808144 13561.979955 11186.344835 16085.558361 14257.633742 17774.219523 17853.759410 17329.867425 25051.774703 20815.651496 26803.419554 17471.805580 25713.110617 25845.357015 26326.273854 26965.859365 26976.373576 5715.798740 10517.849668 11163.513553 9968.742487 12429.264505 11374.516528 17705.057154 15347.030503 12983.410312 19840.808020 23219.524135 22987.732615 22855.218003 24855.489949 26062.213252 26968.312847 26607.394248 26470.101715 26625.932383 26550.602990 14152.917391 14425.661514 11182.533937 10802.993506 15484.353021 11376.754229 12704.696820 17202.174662 13181.383171 15255.021976 16781.151521 21913.470286 16494.182192 17541.354688 25376.809094 24055.166039 27215.024874 26025.274429 25949.206079 25915.377397 12493.352684 11089.668118 12566.559016 10838.389022 12921.874660 12414.308837 11598.011069 14601.450501 15011.408987 17261.982777 15948.429564 18746.640361 21605.115713 24220.136081 17641.947023 24770.125671 25407.377946 24887.116614 26992.599571 26506.554032 8016.533672 11338.096531 12422.867386 11563.145842 15168.414536 15414.298315 11712.600657 13953.644264 14915.721357 19639.842486 17163.555500 19209.619076 17232.404948 23266.152680 23760.799673 25046.741797 26109.807744 26584.713034 25785.914450 11592.195603 10666.442931 11204.053739 11216.165903 11977.296650 13340.878668 11651.450580 14731.981706 20772.542794 15761.277928 18536.876348 20245.562637 24897.055498 18062.881143 24773.433481 26854.048663 25882.910263 24186.468432 25629.002007 12074.073095 11337.117375 12519.161311 10831.736593 14764.030390 15327.018472 11346.734972 14062.459755 15892.789187 17628.462163 21345.337035 16699.307517 21795.568360 16291.988812 24969.037131 25711.773476 25450.258290 24640.789256 25359.877925 7057.934233 11735.448074 12306.125325 11179.411293 12254.390728 13116.027882 14830.179254 18116.047890 17146.140080 18623.025337 18142.370443 18732.459009 21062.289273 20706.631091 22348.625587 23148.853182 22711.781592 23527.856548 25239.511087 11693.511704 11124.511869 12746.199706 12734.746340 10850.279696 11743.922338 14434.985133 16521.935502 12661.844824 14011.044521 18619.287855 15718.714808 20415.055671 19736.779529 18422.731501 25447.492348 24395.678875 25039.074956 9540.164974 11806.682145 11776.806723 11681.278479 13039.283295 12690.234201 13366.729574 13192.564079 18408.684183 18729.883429 16173.641674 21901.222928 19706.646136 22912.597062 23838.146511 22912.066033 23685.714358 24835.405204 10045.048111 11895.779562 11824.062548 13147.016129 11743.274660 13910.850735 12123.007396 15833.212818 16728.468306 16352.716288 18746.315085 21502.590651 19574.869529 24885.067554 19966.986210 23522.236192 26209.178841 10664.062253 10992.419901 11937.432584 11927.594928 12743.697944 13096.601299 19827.605922 12503.965164 12626.796227 17837.018695 17501.588205 22635.726414 25420.967319 22547.297010 21957.365953 24028.775665 23629.904023 11645.367500 11253.445841 11705.330965 11533.761075 19909.958767 21689.297496 14958.430311 15091.559817 14687.383437 22661.213997 17132.961974 23204.775291 22424.890938 23632.496035 20414.773414 22571.348991 23403.498186 23415.915876 7124.962444 12246.212615 19853.053873 11764.995997 11752.901192 12042.159549 13785.989381 17648.475305 21329.030255 20960.414439 22067.867859 22225.613580 22177.028985 23016.378981 23553.081173 22626.843379 12093.453022 11824.857404 13141.255140 12495.090451 12075.690966 17166.042533 16396.006116 19433.114212 17515.205912 13076.383544 21893.037927 21846.335273 23603.158714 22010.331574 17589.584888 21860.375791 11398.705252 11726.075253 11557.637025 13807.371845 22053.043367 18366.420375 17737.923201 18297.861906 15779.959054 13375.495169 20089.124635 21276.380037 23562.675163 24519.876195 24571.167154 22275.231157 8591.165966 11455.425139 11091.858620 14002.419497 12655.095171 12444.881649 19181.527098 12183.498162 13955.551692 20249.047530 19503.085875 21964.397234 22340.376028 22013.627747 21423.173938 8529.181290 11250.824144 12820.205551 11863.918245 13220.756277 12198.281796 13426.264210 14308.821955 21368.277953 22602.370854 20647.320844 23582.736216 21592.821456 17677.835209 20911.338000 6005.618012 9286.351305 11071.397942 11694.688509 13713.080073 13510.842949 11507.986714 15767.024871 20988.979368 14712.167578 24272.428094 14105.663979 24030.699697 21382.864260 20921.982222 10038.762119 11959.989808 10960.227425 10966.600436 14305.214744 12198.248994 13018.716616 15350.013851 14308.440740 12799.667173 23251.745395 23605.983807 22644.077896 20252.734927 7423.651584 10481.287053 12254.630387 17354.272118 17497.503081 13194.914786 11950.068986 14609.078097 16425.246657 21331.956873 20107.230467 18578.785941 21123.412679 19201.878086 8665.883302 8577.485196 12815.057766 12976.992277 17766.193517 12532.780762 18995.177470 17430.565138 12886.750062 13529.729062 21677.768598 23099.344237 18508.710539 18425.574126 7867.007347 15715.890275 11267.999151 14273.584299 17758.721053 16673.965803 22181.742781 14186.076993 20404.744615 18906.798939 20984.872695 18363.723651 18439.193054 13339.197505 10404.760742 12000.855932 15791.410811 11055.565894 17938.289373 11732.000049 18788.188969 19124.203435 19938.849432 20447.261784 20717.772487 18442.406472 7331.976138 12515.417674 19843.599431 13642.690830 15341.084558 14920.449610 15860.517070 12106.986830 20713.895133 17209.623302 18187.187170 16958.342867 17957.428140 11667.182528 10787.847211 11854.100854 13645.275259 8218.093889 14853.283315 12934.353027 16912.737720 17702.996537 14486.909906 14447.977904 17535.153131 7047.076498 6819.650767 9044.647000 9375.636903 11788.019870 12901.071875 14541.290200 19492.589869 17709.678411 21295.161415 19067.675895 14903.835737 10039.706205 9919.710446 11208.723697 18354.307372 11240.409361 14605.505867 17611.086267 13812.236709 18578.979770 20079.152003 17118.606268 14886.767597 14888.323422 6874.378168 11863.984450 14468.886904 14076.251339 13447.514132 13085.540969 12505.519822 21699.328688 18539.551460 13699.153380 20253.042983 12409.051474 8210.496625 6710.621652 12583.953964 19249.559518 14298.011673 13598.333854 9043.023978 21616.822748 9798.222169 14305.858304 6230.294366 12581.883155 11568.753717 12527.345771 8429.273399 15668.166192 14095.847198 19740.728802 14513.430808 18365.471787 14332.831208 8140.470276 13467.072221 8176.112094 12697.838463 13307.333348 12388.325273 12586.987535 17980.040612 13724.569941 14499.929837 11083.936674 11994.370594 7839.282562 13722.809262 13907.482393 13989.195258 16526.459246 19164.738379 20951.769643 16925.294539 1510.882837 7202.228714 4689.808702 10875.415164 11981.694304 15179.245382 12661.763245 20302.943711 19110.149018 14238.280628 5707.855669 9214.267314 12654.290459 11666.671808 14270.705705 12413.373368 14707.835337 17322.919369 13026.105786 6904.514280 6512.641435 11349.122372 11263.338530 11622.992903 16738.919048 14204.182395 12919.565907 13326.651881 5717.210983 8937.321198 12340.607132 13495.866579 18176.398565 13717.977169 18445.055288 17854.777474 12412.758714 6612.251346 9891.892861 8245.691566 11712.231876 12112.872483 11939.667095 14512.783626 20954.986331 7310.369887 8058.109677 7400.560192 9982.324722 14165.259203 12629.525458 9554.373086 12723.772790 3161.545941 12010.636094 10365.868255 10525.861278 10608.054336 9363.776073 16913.263394 11256.615721 5729.601667 5672.932326 8748.453690 13020.516401 13729.490579 15732.555114 12501.689448 8574.893917 10255.431879 7398.525984 8950.096308 13682.458800 10561.605378 10530.364666 9425.475652 6726.444583 13507.083347 6282.745194 13546.543057 12546.669490 10533.286037 10489.502014 6291.560346 7536.487953 13704.779667 7739.653235 9013.565740 13947.588692 1407.443954 8465.961054 11433.300710 14682.253340 12623.110210 15608.113824 6432.687669 11885.272710 6687.827524 9788.871703 9999.230115 8822.021260 1891.854536 10622.309703 10331.697870 13291.123105 8345.953214 5227.286063 12611.384104 13459.541774 9752.553794 14110.894302 5049.569971 6697.221868 7436.210558 5394.657367 6987.965681 6965.625545 6651.040149 7444.170344 12261.936173 9016.857192 2775.325947 4984.716005 10602.611479 2013.306498 7285.791860 6713.265061 6779.492869 9359.051083 7287.675167 9880.690348 6424.291544 8015.945781 4873.233233 6195.436470 6441.401601 6431.574577 6972.881303 4496.508142 13162.071670 4923.981303 8074.509326 10166.923302 7179.679045 10592.204452 6919.846912 6596.430162 8529.276189 10914.399021 10652.614699 10166.914585 9369.213409 9791.198122 10420.383242 11053.018958 9735.555433 11069.288006 6274.054081 11716.250160 7398.868284 7615.982564 12291.102071 9881.544990 13498.039067 10121.693805 11090.382916 12501.382597 11385.070161 12825.720636 12634.877071 11077.675338 16470.999673 14177.822366 10542.573576 11245.377129 11576.350356 11633.644029 10457.621537 9947.734818 10384.722123 13015.171736 16921.187361 12040.715147 17817.961281 18725.496600 11383.454086 11784.251879 10552.463871 9959.214229 12374.682669 11743.233306 10751.727443 10090.339024 9616.045085 10083.403753 10458.097484 11233.207274 15649.898402 10134.914377 10044.874066 18029.309150 17485.688480 14619.010541 10511.776354 10142.613553 13161.263085 15136.721797 9674.082033 10628.943171 11906.997589 10329.022506 10855.606263 12638.237942 13162.526734 17076.801106 13819.502368 11154.017330 12351.834991 10508.745313 16270.482038 12251.762454 22799.787475 10308.067395 10829.362107 9512.161425 11328.183282 9788.577347 10034.090273 13545.270588 10865.608483 14413.993083 12145.811969 13048.641723 11498.373118 15853.633953 15706.815305 11552.046114 10149.978822 9839.384903 10725.491772 9739.161924 10087.055381 10057.427212 9972.332146 14067.923582 11885.082625 14637.791837 13401.630656 12807.919788 12594.298853 13937.542978 17469.376677 9368.931300 9670.781340 10123.520024 12451.073053 10880.263594 10875.241177 12773.386873 11800.906040 16116.064508 12075.733330 10334.814095 10554.266866 12163.148516 12865.174022 18997.337341 9786.649680 9562.523977 10040.191516 10375.905789 10043.416470 11416.754582 12965.851267 10275.648708 11438.451207 16950.605351 11832.876656 13208.036748 11923.140199 12999.518826 14666.134071 9780.528863 9903.488311 10235.093374 9880.250528 11518.017136 13094.019255 11411.412086 11162.634776 10173.844912 11172.717228 13656.765447 15817.561909 15275.985914 19224.705965 16390.659193 10808.062480 9891.608806 9499.023654 10143.318845 10027.053025 9791.653997 10431.576564 12718.464304 15028.910426 15196.496055 11489.434777 11347.792854 12232.758229 10656.545890 17315.290662 10316.982516 9729.169411 11003.505535 10156.765112 9728.361033 13061.149572 11497.642121 15958.883048 10306.432141 10107.888409 10385.161720 14037.538802 13342.772440 10733.654793 13082.165069 10012.234723 9620.223719 10142.092785 10100.913651 9856.658414 10333.982218 10453.835559 12243.562043 10110.437896 9632.121466 9781.750712 13098.925986 10616.870745 10351.563207 11575.911283 10282.142447 9215.504187 10235.117675 10007.037070 10367.373397 10669.507811 12474.743692 11930.710775 10604.709041 3200.776749 9996.615434 10663.774223 11574.459613 12477.804834 10473.863815
</DataArray>
<DataArray type="Float64" Name="Velocity" NumberOfComponents="3" format="ascii">