<VTKFile type="PolyData">
<PolyData>
<Piece NumberOfPoints="2186" NumberOfVerts="2186" NumberOfLines="0" NumberOfStrips="0" NumberOfPolys="0">
<PointData>
<DataArray type="Float64" Name="Pressure" format="ascii">
 25363.739154 25216.358277 25452.381740 25494.893843 25306.097862 24717.441888 24606.060132 24525.886263 24329.088081 24766.561383 25058.098646 24951.913528 24847.812348 25175.693784 25564.869030 25748.901402 25679.808612 25863.478706 26543.826107 26527.159187 26693.741617 26591.404518 25945.331332 25140.106961 24959.607836 25087.925002 25770.350384 25609.218779 25444.947208 25382.930245 25344.316897 25267.962156 25157.147111 24970.245066 24854.074422 24936.868984 25111.816229 25166.151252 25178.536208 25272.216831 25399.499576 25519.288584 25583.614714 25998.312604 26441.099538 26819.116831 26766.907519 26695.697806 26719.757493 26754.308937 26573.778169 26105.587153 25484.903492 25154.918671 25933.548537 25917.728957 25875.050012 25880.482335 25981.264901 26050.722180 25948.442354 25797.375915 25675.806527 25608.707243 25640.605266 25654.010731 25708.125900 25814.553818 25925.243209 26136.948732 26472.548591 26847.200351 27193.093746 27428.557322 27351.338231 27131.137130 26861.185572 26552.869527 26293.479428 26088.464286 25780.098965 25297.566160 25067.020859 25087.925002 24980.632749 24882.341191 24501.498597 24402.181013 24154.428968 23521.685461 23145.388252 22787.767486 22458.566983 21995.390424 21731.781088 21711.213035 21460.959864 20561.327726 20281.496728 20359.059492 20177.523329 19745.218727 19186.051477 18892.965338 18709.686920 18445.348092 18291.725350 17832.351011 17225.541389 16687.902021 16498.054392 16208.596656 15982.033295 15610.328720 15353.112845 15204.516500 15021.619260 14732.836048 14317.933060 13924.422410 13408.821123 12797.010823 12602.283007 12674.779326 12746.154734 12630.203453 12355.811901 11617.249314 11575.304681 11788.293809 11715.282299 11556.221562 11225.788617 10906.541396 10640.913974 10069.885432 9926.768358 9715.501061 9271.202832 9340.416419 9783.877171 9757.931512 9176.244476 8345.747435 7547.646137 7025.113170 6694.270663 6664.442221 6874.585376 7244.227733 7393.209283 6873.738594 6434.521304 6109.969672 5601.645678 5213.857572 4717.256318 4384.847736 4063.051746 3655.756797 3492.708011 3266.748335 2929.303434 2699.931456 25154.918671 24894.534936 24694.751220 24779.482404 24747.791146 24396.278287 23912.251293 23557.243183 23222.001513 22730.769403 22153.702117 21844.846172 21700.705120 21533.133265 21177.060005 20815.998419 20698.737475 20525.216579 19854.244530 19116.316448 18943.725889 18952.577962 18765.329496 18431.122656 17873.531865 17243.080122 16762.536295 16514.584962 16270.859166 16116.076148 15801.657479 15419.357023 15155.008818 14974.295077 14719.687919 14305.360223 13787.450610 13310.230884 12932.243674 12688.667787 12682.532519 12692.437494 12499.495251 12127.375912 11611.277779 11453.069429 11601.208048 11598.406753 11372.020681 11129.197410 10837.396205 10476.025227 10155.788106 9920.675531 9732.149833 9667.529663 9764.899361 9798.426400 9528.575442 9035.109578 8477.784874 7984.719337 7571.853507 7116.072596 6924.332653 7164.100210 7364.375132 7183.094424 6749.837485 6337.827548 5944.200266 5448.179954 4944.804402 4602.204994 4286.181127 3930.387763 3648.419145 3424.374515 3172.214780 2884.698308 2754.374486 25067.020859 24962.461822 24812.662790 24726.118213 24514.631290 24136.775647 23744.509408 23409.776113 23100.925044 22722.124372 22306.379597 21974.568285 21711.889682 21434.629703 21166.281680 20855.140890 20571.741204 20376.896889 20083.636828 19696.843497 19353.924249 19020.809935 18678.256889 18335.495525 17938.063266 17467.828228 16999.602397 16576.929398 16200.025394 15895.763432 15652.286832 15426.609273 15210.098770 15016.266606 14815.473490 14549.261073 14185.989610 13759.973364 13338.235166 12980.543586 12750.278767 12612.523827 12436.971227 12172.113062 11860.520089 11614.309035 11528.976603 11510.367823 11413.644731 11243.466089 11024.533116 10751.090788 10467.252789 10223.754893 10043.789168 9930.105420 9876.358309 9817.074087 9648.181870 9355.811597 8998.073210 8625.421390 8258.592186 7897.225567 7609.657825 7487.700772 7457.990398 7320.970093 6995.623447 6566.055560 6118.716547 5668.651046 5219.753790 4812.039089 4459.485448 4135.699808 3836.085742 3569.699683 3322.098385 3074.891157 2862.746084 2787.975326 2699.931456 2490.408846 2166.105035 1924.100632 1765.996797 1636.587181 1500.924052 1394.235953 1311.856536 1257.129957 1227.949985 1206.085388 1188.261216 1170.012078 1152.081465 1134.705400 1117.930484 1101.749661 1086.133806 1071.038398 1056.401857 1042.132157 1028.056500 1013.681827 998.248863 989.358458 2754.374486 2658.718817 2478.025395 2222.157868 1988.266053 1806.274083 1666.176611 1545.600886 1437.589868 1349.134646 1283.544330 1242.903900 1217.036423 1197.612545 1179.295446 1161.579100 1144.455321 1127.917582 1111.952603 1096.537764 1081.640730 1067.219553 1053.223342 1039.593900 1026.273474 1013.254000 1000.960546 992.671085 989.217985 2787.975326 2740.960057 2641.639856 2461.438868 2229.786937 2006.380981 1820.958240 1674.840540 1552.716555 1445.962412 1357.846873 1292.377776 1248.559382 1219.977868 1198.406758 1179.330114 1161.383489 1144.172108 1127.586672 1111.586132 1096.140474 1081.215878 1066.772372 1052.768353 1039.177685 1026.042018 1013.620170 1002.659113 994.392124 990.274049 989.097467 989.358458 980.494380 964.987696 950.697253 936.943185 923.253431 909.476418 895.542332 881.410374 867.052402 852.447859 837.582016 822.445204 807.032331 791.342484 775.378547 759.146835 742.656728 725.920330 708.952131 691.768695 674.388358 656.830954 639.117561 621.270268 603.311964 585.266154 567.156791 549.008139 530.844654 512.690884 494.571396 476.510720 458.533311 440.663535 422.925668 405.343913 387.942431 370.745391 353.777030 337.061725 320.624080 304.489016 288.681883 273.228566 258.155606 243.490330 229.260975 215.496827 202.228355 189.487353 177.307073 165.722367 154.769818 144.487872 134.916962 126.099625 118.080611 110.906982 104.628196 99.296177 94.965377 91.692807 89.538059 88.563300 88.833248 90.415120 93.378552 97.795495 103.740080 111.288452 120.518576 131.510008 144.343644 159.101428 175.866045 194.720576 215.748137 239.031499 264.652686 292.692574 323.230472 356.343719 392.107280 430.593364 471.871069 516.006058 563.060284 613.091769 666.154467 722.298262 781.569247 844.010776 909.666790 978.592419 1050.888170 1126.812966 1207.151291 1294.843244 1394.693986 1453.609275 989.217985 985.655994 976.692441 963.766023 950.365642 936.847712 923.229602 909.475263 895.548980 881.420125 867.063650 852.459953 837.594607 822.458047 807.045224 791.355252 775.391032 759.158895 742.668240 725.931185 708.962235 691.777966 674.396727 656.838364 639.123966 621.275630 603.316255 585.269353 567.158883 549.009115 530.844510 512.689617 494.569008 476.507213 458.528689 440.657802 422.918826 405.335963 387.933373 370.735221 353.765741 337.049307 320.610516 304.474288 288.665965 273.211427 258.137211 243.470636 229.239935 215.474385 202.204452 189.461921 177.280039 165.693651 154.739336 144.455534 134.882671 126.063280 118.042107 110.866210 104.585044 99.250532 94.917122 91.641826 89.484235 88.506520 88.773400 90.352097 93.312251 97.725822 103.666947 111.211781 120.438300 131.426074 144.256010 159.010070 175.770955 194.621761 215.645625 238.925336 264.542939 292.579328 323.113833 356.223811 391.984246 430.467364 471.742279 515.874665 562.926480 612.955737 666.016338 722.157977 781.426131 843.862139 909.503374 978.383492 1050.532391 1125.972412 1204.686198 1286.253795 1367.854496 1425.382777 1448.112617 989.097467 987.897358 983.350050 974.386138 962.865584 950.058856 936.747136 923.193414 909.458036 895.536703 881.408650 867.051874 852.447698 837.581967 822.445189 807.032326 791.342483 775.378547 759.146834 742.656727 725.920330 708.952131 691.768695 674.388358 656.830954 639.117561 621.270268 603.311964 585.266154 567.156791 549.008139 530.844654 512.690884 494.571396 476.510720 458.533311 440.663535 422.925668 405.343913 387.942431 370.745391 353.777030 337.061725 320.624080 304.489016 288.681883 273.228566 258.155606 243.490330 229.260975 215.496827 202.228355 189.487353 177.307073 165.722367 154.769818 144.487872 134.916962 126.099625 118.080611 110.906982 104.628196 99.296177 94.965377 91.692807 89.538059 88.563300 88.833248 90.415120 93.378552 97.795495 103.740080 111.288452 120.518576 131.510008 144.343644 159.101428 175.866045 194.720576 215.748137 239.031499 264.652686 292.692574 323.230472 356.343719 392.107279 430.593363 471.871066 516.006048 563.060252 613.091663 666.154121 722.297131 781.565560 843.998749 909.627559 978.464447 1050.470718 1125.450536 1202.717109 1280.134975 1351.925703 1408.753716 1437.553820 1445.090282 1453.609275 1523.843042 1651.167526 1773.563350 1895.216416 2019.459773 2147.234536 2278.931686 2414.793826 2555.043085 2699.923229 2849.716882 3004.756745 3165.438454 3332.240824 3505.760748 3686.772359 3876.320863 4075.856491 4287.398114 4513.686348 4758.271567 5025.489484 5334.366205 5661.360042 5992.518631 6680.025974 7141.003833 7633.007172 8758.423479 9441.050075 10104.761761 11356.261174 12382.247252 13034.229245 13470.881784 14005.028464 15310.023893 16768.412432 17974.557883 19032.382864 20017.020917 20999.411935 21836.248346 22511.993454 22926.673373 23134.034784 23882.276418 24587.163706 24974.148157 25363.739154 1448.112617 1478.285075 1552.044218 1660.345200 1775.956202 1895.823405 2019.528850 2147.136817 2278.777968 2414.616911 2554.851830 2699.718971 2849.498404 3004.521660 3165.183329 3331.960644 3505.447723 3686.413834 3875.895687 4075.327942 4286.696347 4512.653151 4756.432516 5021.153055 5313.514227 5645.619200 6017.137122 6574.546411 7100.886594 7636.875797 8541.726045 9346.507977 10100.235129 11199.607140 12138.606178 12828.892977 13446.212473 14137.730484 15366.347448 16784.078636 18008.222853 19005.250464 19970.815741 20960.004475 21865.484893 22564.061826 23078.633082 23533.614152 24053.755499 24708.058731 25305.883312 25574.965837 25770.350384 1445.090282 1455.945520 1494.458357 1569.492833 1667.311889 1778.433451 1896.719276 2019.921991 2147.376779 2278.975460 2414.807298 2555.047231 2699.924503 2849.717267 3004.756836 3165.438382 3332.240453 3505.759423 3686.767842 3876.305768 4075.806970 4287.238638 4513.182722 4756.707584 5020.839722 5308.925494 5636.303034 6031.712172 6509.873981 7050.073933 7686.252846 8455.516073 9269.189339 10141.940578 11119.298402 12020.760442 12777.329764 13474.360603 14313.416477 15440.759758 16703.502703 17899.376211 18948.566120 19912.358963 20838.856618 21725.677210 22511.456908 23170.379372 23722.837149 24237.922991 24819.998530 25320.724154 25641.881386 25856.768923 25933.548537 9524.377785 9616.705317 12058.591853 12395.255567 13342.949986 13697.569543 13662.657468 19084.153966 15792.866841 12968.461333 20175.146111 20601.612548 21569.819250 22503.313979 22619.662925 21937.677030 23150.145190 23377.155511 24893.840945 25403.928561 11840.432717 16256.071981 11784.243947 17289.081719 14720.448955 13726.192231 14322.938082 17927.179166 18572.221437 18838.861919 19204.867216 22213.851920 23013.687931 24739.781075 22894.995314 21699.155672 24420.699385 26579.938905 25369.580018 25827.108741 14608.035622 16995.423391 12151.795828 19720.585041 14181.961662 16751.116982 16759.101998 23806.461925 20475.623758 20967.295922 21771.633682 21987.702017 21254.629537 22839.558566 24587.661564 25514.991406 26623.626392 24664.168113 26024.798913 26307.026654 18982.775538 20687.882473 14928.151278 17012.922895 17075.090173 22478.186712 15173.096357 20891.668777 20945.407292 22299.910746 22450.925057 26146.467745 23543.709482 23740.980554 22181.345046 26359.871843 25930.119528 25440.095575 24864.442140 25476.611158 20271.185443 22493.740759 15652.751764 16643.795819 21513.515283 19836.488075 15156.836781 21372.504256 20241.063050 15077.129358 23733.483752 21460.460843 21938.249274 23446.322563 22532.114462 24513.998246 22837.026899 25022.608496 24974.633901 24992.704442 12127.063751 18662.935921 13860.366461 14053.362189 16062.753727 17573.022404 19873.922472 23401.146761 19426.023204 20104.451341 21681.356448 25033.522270 18390.616546 19112.746787 22213.834379 23908.526589 22382.188803 24872.675401 24907.147470 24511.540436 19939.714391 16074.824224 18891.726357 18375.856470 13921.507400 21893.482439 22452.593800 21710.361611 20668.266154 15865.492520 21483.765484 21667.259409 23677.373241 23472.022317 21699.664751 21739.566764 23230.009889 25099.453456 24603.243152 24522.149857 17670.137284 14198.299197 14925.921388 17254.085633 17550.263238 14526.831549 16005.647181 20112.438609 21049.494151 17088.648317 22569.239092 19674.158455 22167.633525 22230.952271 22256.518425 23055.968908 22272.391408 24966.999148 25153.889300 24770.993533 14390.590984 13617.655522 14981.146281 12557.874275 17340.884865 13866.501553 18797.330572 14802.895239 15036.198247 16088.355303 15704.181019 18717.453060 20456.702144 21449.960812 21605.335461 19537.111510 22390.775769 19419.901967 24888.843841 25257.637217 13984.833520 15146.493584 19930.632315 14364.758760 15586.801305 17565.393041 13139.611659 13630.462364 15643.389091 21904.454317 19612.865157 18493.652966 20658.158950 20810.286022 19701.015034 20758.122942 25186.672451 25118.746363 20576.811053 25133.005091 17396.446597 17865.911168 14764.105843 16532.637935 17670.420465 20212.730055 16283.710819 16150.410901 18466.101015 18601.421373 15752.797925 22863.883014 19731.420231 25196.959237 20936.875600 23508.179758 20464.194600 23592.293084 25135.044988 25216.288182 12191.907467 12631.031114 14568.247674 16536.133238 14256.983943 15680.227803 14607.942815 13187.743818 14606.808219 22966.042571 19489.471580 15495.264762 20169.456992 18655.195756 18538.539888 25701.911454 22730.674611 20479.176458 23740.416109 25249.902393 14678.759614 13350.022026 14378.360877 15815.408976 16318.714969 14333.814439 14340.017504 16858.358447 15577.438192 15765.191116 13559.118826 21377.625684 15090.107573 21008.773793 21263.933851 19909.392525 24266.721745 24637.592452 26156.845365 25337.328464 12328.438318 12456.662860 15167.816832 12896.756360 15039.968447 16363.783984 14846.216477 16411.409270 13372.335210 18714.310129 17592.980017 18764.389283 24614.532163 20599.216370 21153.074997 22269.526268 25945.524279 26503.727054 25470.519238 26181.201571 16556.379932 12143.754866 12619.755687 13529.025940 15312.982860 16844.596126 14086.785334 18058.918254 18592.059990 16643.047441 20113.979903 16548.327493 21376.252022 22977.941350 22970.616285 16672.446757 19903.637626 26351.261452 24177.069578 25722.345120 11723.628688 12140.511821 11993.123887 12560.224372 16064.760328 18475.277110 14115.702348 13008.950461 16789.061168 13905.319166 16160.351787 15467.190760 22870.596193 22410.350195 24845.952950 22609.554553 19692.876117 25918.729944 22031.872928 25712.775958 17082.687419 12919.767218 11613.920698 12100.957047 14337.951097 14249.741362 14322.393976 16697.931815 17400.854650 14954.724115 14085.927958 21395.833326 18922.974728 23061.443769 17615.774231 22926.187548 18980.469860 22249.466031 26260.867142 25547.187782 12525.104468 11945.560026 11917.695268 11756.083190 12490.241241 13202.875717 14561.238148 13617.112846 15415.802945 14556.750130 21286.522475 15359.734693 15747.993045 15216.807235 22424.567982 18927.660124 21859.425507 26704.718990 24385.197069 26566.926820 9157.520794 11994.124703 11858.578826 12361.973369 12159.667934 12406.872068 13495.377148 14416.599959 19416.221852 21097.528312 18260.161341 19080.615486 24102.618803 18852.897040 23269.168719 24415.309028 24127.074258 23280.369603 22402.012192 24343.104913 12135.235644 12101.333951 12177.495590 12404.372236 13142.364286 12244.207388 12925.293491 18797.385628 15154.965241 14968.509695 18733.337593 17422.010633 25008.300421 22398.758938 24644.926584 24496.492729 23593.770816 26447.038531 26399.750195 26524.079052 7711.323206 11948.410029 11984.501708 11882.702722 12191.205926 13043.825432 13477.163980 14513.978800 15498.573772 18448.517527 16587.650807 16264.287323 17713.420198 24738.494396 17642.234813 19963.506698 22227.844845 23001.103590 24367.757717 26026.028256 8124.848659 12316.442703 12381.777606 11806.222389 15087.827643 12982.010886 14192.635601 15854.326736 13775.240446 13931.486825 21959.048344 22857.472066 22104.796421 22241.129884 22961.413307 17644.429721 23655.166511 21216.612019 24801.325088 25292.852430 14917.379945 12610.188587 15382.168360 12718.562794 13343.551886 12960.502780 14746.574885 13829.162787 17646.483406 17803.863625 16689.674578 21946.771904 18375.204575 23433.046248 14733.383986 24260.673646 25790.105460 26706.465241 26135.126854 24164.152512 11517.213437 12296.627818 12454.140696 12035.705693 13294.612565 12450.295314 16551.045075 14728.960289 13806.827078 18356.698002 20979.287480 19803.432657 21245.861992 22870.068965 24905.185258 25516.999293 25937.410420 25856.192192 25935.177060 25174.300316 15284.973404 13595.867876 12399.039308 11925.323133 15038.825482 13231.664369 13165.599242 17111.676623 13812.759903 14572.073990 15279.958344 20753.494999 15887.507285 15881.658984 24411.349486 23418.424941 24517.132725 24416.257086 24095.880849 24846.776303 13204.022252 12303.180089 13016.036621 12423.350754 13261.310280 12700.647517 12892.178864 14728.957572 15401.672124 17867.088201 17099.108541 17741.992354 22176.450732 20422.799775 15930.512454 22504.801426 24134.965686 23086.665558 24459.353611 25173.970724 8688.847316 12156.227572 14195.504446 12489.912593 15154.457622 15800.461437 12750.028006 12922.248413 13941.532898 17169.379997 15601.622447 17813.648168 18028.828511 19503.430808 22804.359087 22935.548978 23972.169715 25759.323485 24642.030772 12591.935707 12269.570085 12374.030311 12389.812992 13700.863818 14351.773578 13365.540096 15273.088308 19198.854889 15898.241766 16598.558284 19407.308467 23120.696215 16648.787388 23270.325848 22875.372042 23460.143968 22209.840632 24219.264304 11854.300456 12415.159399 12920.796454 12510.922812 13968.441490 13794.923281 13001.869215 14046.113897 16219.027047 17732.797366 19529.562657 17695.217873 21607.532260 15086.294026 22707.581729 23255.706792 23088.360542 22849.548748 23816.239309 10872.740983 12964.475367 12666.059318 12235.825878 13993.732607 13241.714061 16901.638215 16732.142917 17128.311885 19040.593611 17886.737206 16192.539782 18453.128465 19483.095042 20607.992592 19513.786093 21938.687134 22389.954501 23428.611160 12492.948679 12041.059584 13599.375391 13165.275222 12444.151442 12348.888794 14066.867969 14618.193669 13327.428821 14018.493498 17099.962748 13378.631169 19857.890978 17832.871537 18257.160380 24216.399590 22449.297384 22874.210030 11689.142024 12527.095657 12270.536355 12507.727615 13918.628985 13290.886046 15432.387050 14342.893223 18844.376267 16448.011557 16212.058924 20741.691896 18710.673582 21829.558154 22540.641577 22390.998989 22153.253544 22538.618424 11533.221280 12304.563608 12472.368138 14454.071975 12812.382474 16657.860441 12436.544755 15510.539064 14252.049099 18310.916890 20226.309204 20883.354589 18006.629969 22160.590045 17367.377566 23066.238472 24148.276148 11939.179351 12459.133862 12374.686867 12657.657495 13100.457327 13806.728395 18976.539643 12931.883521 13262.728619 17758.097732 15195.471740 20050.115631 23903.271401 21388.024708 17938.581007 21721.845960 22206.718051 12389.618822 12603.069940 13626.551621 12199.472081 19779.626341 21201.761329 16162.291180 16178.663827 16586.212651 22732.096550 15738.126634 22389.408685 21471.691447 22795.190508 21411.532325 20697.431659 21737.254767 21738.607378 11667.892638 13071.461712 18720.477369 12331.259259 12708.536396 13074.382841 13590.311759 16803.039954 20122.307484 19827.099695 21755.630209 19701.470034 21902.333376 21143.891153 21595.119686 21355.356591 12123.658981 12163.765182 15361.918188 12575.104355 13333.480341 18812.001427 15141.424421 19070.578416 20025.249532 14096.480892 21399.298853 21382.794055 22792.629740 19820.864999 16423.203412 20440.426309 12272.486141 11612.833162 12260.884120 14482.088508 22162.970888 19683.509533 19444.110104 17089.318881 19045.575927 15147.614412 16865.296369 21933.146982 20648.897226 22284.719614 23315.354253 20046.515121 13147.291309 12616.888785 13200.989533 18870.126469 13959.001887 13930.486629 20388.283778 13440.397259 14134.185263 20889.829673 19327.166463 22325.835237 21963.830651 22479.287098 19615.663844 11706.689956 12316.180729 13466.948695 12531.416651 15867.205988 12848.135930 15332.860969 18002.550863 21438.881909 21156.754124 19725.135903 23409.373862 20258.743214 17584.330626 19898.116132 11903.855983 8522.658085 12379.591727 12085.312840 14611.727205 15938.670085 12981.920003 18049.841983 21624.091165 16248.461115 22415.299648 17170.559199 21580.582762 20898.520970 19857.862621 11710.828284 12268.884473 12517.449466 12127.321252 14959.856256 14368.275777 15411.950231 17042.197724 15887.831820 15639.405286 21516.433173 22456.327395 20749.620664 19522.979585 13715.516790 12267.364547 13129.119485 18622.073533 18177.196276 14689.097492 12830.938634 17619.320783 18401.119130 21098.711764 20971.462772 16580.094436 19649.289163 19182.156397 11544.286752 8816.846830 13556.517126 13626.901033 20004.806518 12360.387927 20308.728858 17540.147062 14058.817659 14574.825217 19750.281093 20498.049004 16734.214513 18632.290591 7675.386844 17431.197640 11790.427292 16369.733944 19172.486178 17611.559158 21664.542224 16066.774988 18821.446859 18970.296733 21992.932003 18336.850503 18080.636076 16990.580307 12549.400474 12485.476386 16743.470981 12165.855401 18544.625665 12747.942911 19618.289418 20045.942085 21631.526667 21160.574889 20203.221532 17889.655227 12320.758887 15071.826727 20729.621785 15242.515306 17725.429013 18839.270005 19608.535479 12340.343158 19966.184208 19218.885914 20727.681671 17412.260799 17822.422608 14442.187038 12258.991482 11981.294650 17162.527743 12342.410783 18509.000528 13261.297846 17344.693727 19137.369480 17301.110885 15891.193122 17366.418967 11720.913259 11584.819534 13003.062447 11375.654363 12396.215903 14211.245310 17106.624318 21125.197717 14592.983711 19085.970750 17604.126166 16586.415421 12328.608982 11962.375592 12509.002275 19627.459920 12596.001921 19063.762324 21092.910583 16547.762889 18997.064362 20507.251781 19404.403775 16584.607932 16586.291909 6182.179745 16022.295726 14989.265977 19101.633036 14752.731599 13224.574052 15266.474935 22287.908859 18801.219092 19049.812186 20339.009162 15344.657539 7261.950021 12035.811775 12739.856525 20122.292484 18956.146775 17846.283993 10337.349865 21459.489211 12804.459642 15637.467313 7371.870018 12928.144512 11911.871313 13439.901874 7792.261744 19559.616757 15996.458671 20205.428957 15295.849424 18523.223993 15406.849398 11453.697938 16596.274885 12508.132424 14925.991610 15971.481066 12633.637952 15383.819562 18543.711526 16753.639483 15174.909813 13868.549002 14586.383686 11985.089419 16989.708646 16946.496105 17066.290702 16362.759493 21173.064449 21536.769352 18052.792246 1373.678780 7025.973243 5488.470131 16282.666671 12793.053979 18010.800360 13371.616074 21348.456573 19035.159295 14918.260936 4406.032706 14604.943364 14347.859222 13849.212715 18723.100176 15541.549302 18635.282103 18464.215237 14603.943359 10040.167113 7817.732046 15302.098235 13184.450898 14178.023131 18544.506389 16591.070210 13798.867170 14634.185071 10515.258968 10919.672873 14605.302659 16327.783000 19300.233376 17708.771568 20321.062369 18498.018992 14026.966113 11422.033103 14498.335633 14075.379983 14823.517617 14750.106362 14902.798759 15089.961250 21454.983792 6139.636997 9137.854893 7571.095446 14190.585611 18646.688985 15006.530715 11513.161992 15796.305510 3638.852734 14761.204643 14329.414765 14872.447598 13549.373708 14371.243441 18607.151530 12789.177839 9401.591239 6468.529308 13850.180123 15421.483747 16211.094701 18180.865705 14096.926303 10419.948209 12622.119517 11706.879943 11668.347230 19073.228568 15047.435462 12518.643713 11563.446051 10028.115831 16857.695879 5363.737920 15966.258775 16345.525044 12513.185582 12513.507434 8204.656710 14151.706120 16969.433475 12824.982076 11906.976003 16895.553653 1264.477899 12836.435929 15199.621394 17634.770462 13972.031129 18518.932169 10459.032306 15524.403212 12730.106317 12814.091136 13760.680119 11709.946622 1760.809987 14154.529030 12785.623720 17182.817125 11633.608840 10085.925028 15335.282281 14859.504375 13875.049019 17792.927392 7471.130426 11512.114469 11291.930577 8483.939205 11147.316754 11262.050008 10847.911638 11117.557229 13518.079418 11537.589467 6561.828767 11141.440201 13822.027355 1896.170097 10744.929751 9912.060579 9996.494154 12521.750596 12887.808533 14557.856441 9929.710968 12638.005750 7817.007612 9557.974869 10720.775488 12258.856351 9375.035001 11263.179842 16876.294012 7510.874229 8451.303044 13256.139338 9384.057612 13845.040213 7331.832165 6903.890074 10154.944202 14031.408626 12294.705739 12590.010622 12001.543983 11529.136397 11670.682433 13550.447050 11097.179116 14356.794874 5877.317062 13603.605331 7180.879351 7256.199627 12791.680513 9929.195880 12892.270859 11710.835787 12094.283607 13013.359778 12575.068852 13321.151263 13612.890902 12143.814707 17251.878359 14569.260684 12408.108698 11973.587947 12272.201103 12998.731114 13659.166415 9101.529417 11990.083543 14027.201451 15947.982220 12677.744461 17633.568799 18154.660347 14157.321078 12782.712362 11808.952377 11733.315608 13212.655743 12507.981494 11774.326763 11292.375227 11701.324512 10842.238425 12182.863674 12133.109656 16009.181379 11744.247304 11892.700355 17442.750441 17859.184703 14701.168228 12064.271151 11838.843401 13724.736747 14901.035473 11989.572637 11787.253884 14080.680213 11909.826708 12093.795559 12997.974289 13480.034632 15754.091534 14862.987872 12275.687576 12580.994059 12145.651847 15845.240502 13105.455523 21134.982137 11997.890234 12276.171411 11419.105425 12527.035444 11782.421605 11459.133819 13126.705778 12373.981640 15100.321619 12665.427412 12430.677085 12213.465530 14653.115354 14966.657899 12551.039238 11419.549548 11277.400127 12272.938344 11758.690001 12040.492268 12058.092978 11625.643241 14165.065125 12760.519725 13091.922570 13081.920949 13454.208789 12607.231103 13402.190244 17079.755244 10957.291776 11713.830220 12134.178592 13844.480705 12705.363904 12461.314725 12654.725189 12979.058526 15278.114153 12323.278613 12512.879059 12043.427820 13662.178609 12725.465238 17135.192175 11465.833517 11890.439507 11902.323645 12481.053758 12147.065044 12615.186627 13787.871957 12044.800945 12882.334228 16016.325289 12907.169272 13454.864639 13988.477403 13648.899907 13357.187753 11169.955741 12119.305683 12035.557658 11892.925440 13074.539629 14218.437653 12886.357653 13350.861542 11906.170801 12819.659172 13786.035003 14036.982546 14301.114135 17468.533914 16036.522997 13429.058378 11774.563207 11926.562379 12012.422059 12152.833078 11926.073053 11993.348530 13067.433049 15277.481607 15767.922627 13428.902910 12319.671188 13391.539227 12987.810032 15549.477458 12256.718129 11696.836022 12956.670363 12262.844907 11981.463343 13443.197519 12699.590879 14745.481148 12177.900221 11872.164991 12620.411336 13836.251521 14857.324219 12620.946509 13534.766810 11929.812965 12341.907071 11779.989645 12377.806526 12267.443972 12088.301193 12034.887195 12636.099288 12042.214066 11958.610395 12142.909577 13586.112992 12221.534615 11951.111983 12842.870383 11944.450678 12119.907679 11924.246152 11920.131452 12170.907573 12411.011809 13550.744827 12283.641780 12548.230103 3424.533173 12232.177663 11855.173373 12270.636777 14316.228679 12131.833974
</DataArray>
<DataArray type="Float64" Name="Velocity" NumberOfComponents="3" format="ascii">