<VTKFile type="PolyData">
<PolyData>
<Piece NumberOfPoints="2186" NumberOfVerts="2186" NumberOfLines="0" NumberOfStrips="0" NumberOfPolys="0">
<PointData>
<DataArray type="Float64" Name="Pressure" format="ascii">
 32773.720626 34708.291915 37187.747740 38013.667657 38640.700855 39456.146974 40990.063037 43021.303606 44113.997539 44582.284658 43168.626638 42665.388855 43597.189340 43862.994325 43585.486596 42354.871280 40533.284235 38900.822122 38663.730889 39513.855167 38728.852455 39261.493753 39142.057495 37981.881184 36486.175132 34225.616832 28202.343805 29936.354613 31249.528319 32135.258442 32871.405614 33612.345506 34877.234312 36680.385082 38294.431034 39851.399825 40984.185379 41239.973082 40919.915763 40969.345915 41006.790749 40771.880450 40067.028086 39338.067107 38651.451182 37841.245882 37767.849077 38948.020458 40031.774705 39763.399725 38743.527944 37449.067362 35357.288597 33797.706969 26939.183064 27232.426500 27999.139171 28864.390814 29531.458232 30179.942642 30922.689608 32103.378990 33749.443288 35507.155118 37162.869774 38380.637008 39019.773409 39361.580741 39586.107466 39758.319561 39670.710716 39223.610320 38589.354541 38100.183619 37840.143911 37903.254735 38441.426756 38740.422334 38238.099021 37268.621068 35825.183677 34090.464561 33232.162793 34225.616832 32561.253779 31165.606651 31331.171586 30743.291077 30185.779454 30836.086763 30873.123539 30411.208550 29462.363045 29194.078087 29019.805576 27803.386157 26034.873685 24661.188168 23870.199032 23136.429923 22802.553661 22703.832250 22502.112552 21749.688414 20812.693870 19876.556602 19226.203182 18275.805425 17407.368643 16968.172434 16853.903926 16343.280476 16264.583209 16452.712471 15847.652382 14709.284257 14170.241589 13995.171971 14195.718496 14258.985802 13998.223859 13465.625533 12904.259510 12289.292757 11422.162813 10533.565893 9955.748646 9339.708151 8827.529432 8407.795817 7712.071829 7189.079919 6782.738899 6347.157294 5834.930471 5175.685307 4570.267226 4086.683062 3668.715380 3389.880852 3088.519479 2752.679378 2545.198323 2370.162281 2205.382666 2074.497005 1901.867572 1657.780074 1430.593832 1227.641067 1044.764162 880.642631 734.770549 606.568737 495.150114 399.360720 317.850468 249.122056 191.564203 143.469700 103.013708 68.030039 36.903078 22.743577 33797.706969 32615.560399 31350.915481 31007.511809 30876.506853 30603.313609 30416.365428 30415.719202 30174.951280 29859.533551 29495.728933 29019.350119 28319.452126 27264.364097 26113.142116 25094.900259 24332.657545 23882.094991 23629.553386 23396.680936 22884.947710 22159.375394 21520.446865 20864.915374 20070.757899 19304.487612 18819.176036 18676.286142 18527.151477 18322.015183 18117.167843 17704.615846 16841.572193 15989.136381 15665.032202 15449.189618 15121.177259 14766.127490 14087.955122 13253.591067 12502.023822 11627.343193 10679.262235 10055.322029 9533.132403 9034.673456 8506.665239 7892.401700 7353.000944 6956.627762 6536.692215 5924.644922 5251.158797 4728.899139 4277.985365 3865.679367 3555.314052 3238.078605 2915.993613 2646.213562 2416.715826 2210.359315 2013.559083 1801.830438 1580.335477 1368.337804 1172.790329 995.014804 835.425909 693.999560 570.193421 463.054418 371.352142 293.666264 228.440531 174.027846 128.737313 90.896725 58.866427 33.245430 23.572740 33232.162793 32719.569172 32118.725522 31855.590848 31714.339605 31472.904792 31080.026578 30652.410988 30220.803904 29802.900459 29366.841111 28960.725552 28600.982948 28045.679316 27063.568009 25889.914778 24965.765951 24456.705253 24251.841258 24069.423440 23697.238530 23162.787631 22610.522372 22071.432399 21477.789388 20870.773505 20382.390537 20050.036510 19783.730160 19449.967680 19084.546252 18663.191589 18060.167440 17316.894674 16664.511954 16110.592878 15554.527640 14971.048217 14294.130379 13514.355489 12723.401372 11931.972959 11119.601147 10409.619349 9835.137206 9317.218172 8813.533548 8303.761119 7785.961050 7286.094978 6795.951284 6244.119233 5642.149654 5077.852415 4579.269654 4140.576689 3764.899650 3432.747091 3123.172531 2839.293506 2582.575509 2345.749694 2121.760031 1902.953631 1685.937140 1474.746047 1274.967422 1090.114029 922.080234 771.687246 638.909353 523.108085 423.251759 338.060980 266.091665 205.792990 155.569977 113.873736 79.368634 51.112495 30.723273 24.269781 22.743577 17.070516 11.251259 7.513757 4.996049 3.281776 2.125182 1.355758 0.851816 0.527014 0.321046 0.192550 0.113686 0.066071 0.037791 0.021271 0.011780 0.006418 0.003440 0.001813 0.000940 0.000478 0.000237 0.000110 0.000040 0.000014 23.572740 20.437572 16.163324 11.431222 7.869572 5.341518 3.574945 2.359105 1.534772 0.984271 0.622185 0.387636 0.238010 0.144013 0.085863 0.050439 0.029190 0.016641 0.009344 0.005167 0.002814 0.001509 0.000796 0.000413 0.000209 0.000101 0.000043 0.000016 0.000008 24.269781 22.315412 19.517944 15.500753 11.280977 7.877216 5.368622 3.596512 2.373065 1.543106 0.988985 0.624715 0.388906 0.238587 0.144229 0.085907 0.050412 0.029143 0.016595 0.009307 0.005141 0.002796 0.001497 0.000789 0.000409 0.000207 0.000101 0.000046 0.000018 0.000008 0.000005 0.000014 0.000009 0.000003 0.000001 0.000001 0.000000 0.000000 0.000000 0.000000 0.000000 0.000000 0.000000 0.000000 0.000000 0.000000 0.000000 0.000000 0.000000 -0.000000 -0.000000 -0.000000 0.000000 -0.000000 0.000000 -0.000000 -0.000000 0.000000 -0.000000 0.000000 -0.000000 -0.000000 0.000000 -0.000000 -0.000000 -0.000000 -0.000000 -0.000000 -0.000000 -0.000000 -0.000000 -0.000000 -0.000000 -0.000000 -0.000000 -0.000000 -0.000000 -0.000000 -0.000000 -0.000000 -0.000000 -0.000000 -0.000000 -0.000000 -0.000000 -0.000000 -0.000000 -0.000000 -0.000000 -0.000000 -0.000000 -0.000000 -0.000000 -0.000000 -0.000000 -0.000000 -0.000000 -0.000000 -0.000001 -0.000002 -0.000005 -0.000010 -0.000022 -0.000045 -0.000092 -0.000186 -0.000368 -0.000719 -0.001380 -0.002608 -0.004854 -0.008896 -0.016064 -0.028584 -0.050133 -0.086692 -0.147838 -0.248685 -0.412720 -0.675875 -1.092249 -1.741956 -2.741600 -4.257939 -6.525432 -9.869188 -14.738342 -21.768301 -31.936421 -47.137738 -70.964423 -88.061318 0.000008 0.000007 0.000005 0.000003 0.000001 0.000001 0.000000 0.000000 0.000000 0.000000 0.000000 0.000000 0.000000 0.000000 -0.000000 0.000000 0.000000 0.000000 0.000000 -0.000000 -0.000000 -0.000000 -0.000000 -0.000000 -0.000000 -0.000000 -0.000000 -0.000000 0.000000 -0.000000 -0.000000 -0.000000 -0.000000 0.000000 -0.000000 -0.000000 0.000000 -0.000000 -0.000000 -0.000000 0.000000 0.000000 -0.000000 -0.000000 -0.000000 -0.000000 -0.000000 -0.000000 -0.000000 -0.000000 -0.000000 -0.000000 -0.000000 -0.000000 0.000000 -0.000000 -0.000000 -0.000000 -0.000000 -0.000000 -0.000000 -0.000000 -0.000000 -0.000000 -0.000000 -0.000000 -0.000000 -0.000000 -0.000001 -0.000002 -0.000005 -0.000010 -0.000021 -0.000044 -0.000090 -0.000182 -0.000361 -0.000706 -0.001356 -0.002565 -0.004777 -0.008762 -0.015834 -0.028194 -0.049483 -0.085623 -0.146106 -0.245921 -0.408369 -0.669121 -1.081908 -1.726311 -2.718126 -4.222682 -6.471294 -9.780565 -14.573469 -21.399073 -30.938738 -43.896169 -60.218057 -72.809215 -76.726431 0.000005 0.000005 0.000005 0.000003 0.000002 0.000001 0.000000 0.000000 0.000000 0.000000 0.000000 0.000000 0.000000 0.000000 0.000000 0.000000 0.000000 0.000000 0.000000 0.000000 -0.000000 -0.000000 -0.000000 0.000000 0.000000 0.000000 0.000000 -0.000000 0.000000 0.000000 0.000000 0.000000 -0.000000 0.000000 0.000000 0.000000 -0.000000 0.000000 0.000000 0.000000 0.000000 0.000000 -0.000000 0.000000 0.000000 -0.000000 -0.000000 -0.000000 0.000000 0.000000 -0.000000 -0.000000 -0.000000 -0.000000 -0.000000 -0.000000 -0.000000 -0.000000 -0.000000 -0.000000 -0.000000 -0.000000 -0.000000 -0.000000 -0.000000 -0.000000 -0.000000 -0.000000 -0.000000 -0.000001 -0.000002 -0.000005 -0.000010 -0.000022 -0.000045 -0.000092 -0.000186 -0.000368 -0.000719 -0.001380 -0.002608 -0.004854 -0.008896 -0.016064 -0.028584 -0.050133 -0.086691 -0.147837 -0.248682 -0.412711 -0.675843 -1.092144 -1.741604 -2.740422 -4.254004 -6.512311 -9.825492 -14.593021 -21.285476 -30.336884 -41.784586 -54.378505 -65.184791 -69.954356 -70.530485 -88.061318 -128.546274 -208.587379 -294.327162 -387.883698 -491.140734 -603.735112 -723.867769 -849.182399 -979.979327 -1125.814067 -1309.365730 -1531.535302 -1641.090194 -1760.440576 -2428.584487 -2336.997654 -1968.157908 -404.566141 617.465233 -140.251763 -3470.148354 -4733.395811 -2411.031360 554.357454 1541.226548 3618.978066 6416.314902 7821.046839 8017.471235 9485.336998 12596.200848 15675.412801 18107.461260 20818.056408 22153.128505 22285.387721 23009.444808 23974.750998 25187.817058 27463.926650 30304.437007 33303.421682 34479.432713 34540.392784 35273.527555 35365.738081 36008.295074 35902.940918 34724.867876 32773.720626 -76.726431 -95.974080 -141.974239 -212.910488 -295.110591 -387.769271 -490.798460 -603.407287 -723.633259 -848.867998 -978.753089 -1121.598060 -1299.735580 -1530.171148 -1744.480777 -1827.780797 -2024.971401 -2382.930528 -2460.227606 -2075.509087 -1920.640575 -2558.290316 -3275.437912 -2784.712020 -1033.219248 590.884581 2369.480359 4326.912391 5854.492023 6728.254181 7446.772990 8698.972880 10932.169690 13688.839408 15872.423664 17578.237147 18614.195305 18659.902215 18702.632756 19709.031784 21607.819528 23826.703753 26461.747291 28691.673550 29501.632483 29418.724563 29972.585071 31189.679823 32018.914742 32439.247563 32127.325763 30361.825420 28202.343805 -70.530485 -77.913657 -102.667864 -150.877898 -216.705579 -296.725102 -388.615412 -491.370653 -603.817150 -723.862516 -848.878129 -978.474850 -1120.507679 -1295.978405 -1526.216522 -1787.740390 -2004.627299 -2189.566516 -2436.069591 -2680.342934 -2917.454167 -3152.702080 -3331.700832 -3125.269026 -2150.077442 -656.180292 848.900944 2432.559785 3964.835514 5108.197793 5954.009410 6827.243165 8044.477349 9815.455817 11990.479488 14023.414000 15640.573654 16918.113029 17722.819483 18394.772524 19473.224402 20864.849362 22318.729587 23928.781670 25430.539033 26421.700587 27029.693929 27846.553658 28893.427751 29696.840135 30121.964025 29741.973699 28475.371476 27328.785994 26939.183064 10175.315369 11655.883521 18534.496071 23717.879291 31943.981246 24783.547531 27009.075963 32488.414390 30309.311026 30571.794630 31603.466383 34329.768313 38047.860885 39418.864258 40361.294559 39082.996708 38823.891448 39012.125757 38804.319868 38950.684700 20953.049361 22325.556468 24004.666026 30680.113284 32867.454442 33414.571695 29457.905376 32935.303150 33439.629027 33285.432227 35986.591356 39792.813387 39916.433562 41436.203362 40856.843374 40864.132423 40276.739995 42225.029071 38547.156066 40348.518848 29300.552734 26214.434508 28740.463595 33818.674125 31607.362290 33601.866013 33866.604418 35792.456617 37177.031367 34446.417322 38896.466507 36474.003711 39075.243341 42196.532433 42309.962986 41870.045929 41134.218479 41193.895696 41753.013762 41407.151150 26941.269345 30826.790846 27323.784099 32380.929946 31126.846751 34759.475572 32890.279831 34573.880876 35210.972637 38526.852390 37011.922512 41745.527483 39776.631574 41854.147871 42117.599822 42230.755182 42766.624664 43039.952387 43121.696808 41663.508932 28019.303179 25971.262585 30970.778424 29976.646442 31722.311611 32935.814300 35339.606528 34236.010860 37683.662913 36938.016025 40944.107633 39045.239417 42583.615641 43593.026526 43847.877737 43766.317115 43746.242525 43929.481512 43924.514856 41959.076504 23265.826299 28365.060104 26234.532729 31778.890063 29519.199486 34989.998657 33335.289694 36632.985517 37048.667728 39468.890532 38477.692890 41872.793388 41171.029785 43352.825084 44300.567585 44707.137788 44679.423865 44321.406169 44608.694440 43182.431829 25667.777824 23391.384762 27752.608765 27507.245831 32762.631834 30887.594887 34421.647668 34479.090601 36752.147056 38290.774192 39171.758941 39831.390051 41646.821939 44116.718000 42634.270253 41988.567953 43056.181298 44211.623786 45688.046684 45191.177538 22187.927746 24532.936958 24789.035220 27521.959322 29139.193352 32640.303381 31224.182977 33641.864726 35370.229806 36945.488765 40732.283093 38793.900299 41436.827175 41787.560100 41765.347427 42625.596863 42024.746239 43953.251874 43578.170262 45663.016936 22537.045288 24061.166084 26431.295071 26220.388052 28101.692165 29114.030592 31002.343774 33132.686028 34359.738837 36679.685170 36470.577666 39155.624549 39595.635724 40930.340918 41701.249013 42317.171558 41582.632903 42764.553027 45308.055439 43833.407510 18998.685639 22292.617357 23483.043786 25241.602048 27243.564187 28929.229938 31907.749578 30724.422158 33030.566013 33929.265992 37891.503534 37591.107799 38835.836356 39489.903355 40393.810496 40683.912969 42396.663396 43046.798497 45339.331219 43688.743553 18187.167073 20290.783944 21914.892850 24782.715208 24004.100084 26197.581409 28543.384656 30429.839110 31293.927291 34352.861941 35112.893863 37694.541465 38749.542315 38774.680281 38581.086656 43260.380829 41551.005958 42689.261238 45132.298566 46516.815123 16728.271782 17902.975704 18913.854250 21172.301944 22620.631466 26731.933075 26762.396868 28388.439869 32758.286325 33054.795484 34720.501959 36433.831169 36387.622287 37496.271408 38705.297739 39137.578940 43085.109736 41973.885998 40309.246463 45110.848852 17386.731528 16593.956887 19204.163701 20327.758990 21492.697697 23318.004940 26575.299060 29820.319133 30543.003638 31144.545565 33906.613169 35974.440822 35641.176848 36281.396523 37486.224985 36788.244422 38107.394964 39819.414923 44228.568796 46602.023174 12193.709489 14580.273731 18742.356008 18768.068736 20118.234144 23428.070460 24147.445824 26651.686697 28287.513951 30238.403329 32601.739736 33794.025152 34329.886028 36157.616292 36813.300153 36481.051155 37785.928139 41290.340765 39302.225086 45587.628484 -672.542665 11175.616051 14825.514840 17907.076395 19909.362493 22451.512623 24917.003438 24134.420745 26463.297278 29264.679659 32160.015903 30177.578344 35420.629949 35750.938848 36499.552980 38383.189208 35920.165167 41311.396983 38589.515901 43263.200531 -5967.220033 10395.805474 14726.640163 17715.481313 19553.800979 21879.646080 22109.928500 23587.629777 26543.603854 27805.548393 28355.272178 30701.703348 34187.806089 33983.422527 36430.433945 37766.263824 40028.383678 39283.545205 39963.900097 41537.951440 -9209.498359 6761.399427 9830.859569 15716.463692 17933.871166 19835.112675 21707.171029 23752.672913 25073.973856 25931.746346 29715.295456 29126.409816 32381.851873 36090.026911 34797.284379 37816.544146 38001.782527 37897.465580 39171.002540 40671.556713 658.669251 1784.350047 12663.084311 11902.903607 16656.463228 19384.968427 20482.181217 22453.042691 22749.741821 26032.316263 26297.754942 27028.591387 32193.332952 31383.504066 34983.704300 36509.367369 37701.684586 37275.350367 37489.339632 38953.425638 -5587.043892 6953.920693 9436.092258 10572.639394 15156.766064 18268.701218 20221.031449 20664.865608 23672.734309 24009.143715 25082.251927 27910.431612 29226.112250 33322.121072 33065.112599 35574.566753 36000.246953 38646.296753 36293.851903 38247.828900 1223.901377 870.046935 10057.334195 10446.582221 13037.669990 16379.731402 18768.807963 21776.046460 21762.514199 22410.189882 25301.387367 25461.597249 30233.552763 31388.237436 33603.335981 34132.384816 35438.449776 38061.716283 38262.950140 36513.342951 -1094.910143 91.670744 12760.948095 10193.658130 11506.212456 16252.649568 18834.178261 19071.850004 20909.518502 23280.691213 23779.748887 26999.090517 28965.695350 30385.537046 32701.160171 34550.123390 34651.756124 36567.773284 34097.890705 38918.109510 318.348226 1238.876879 8435.534983 10129.710110 11533.414074 15827.307076 17698.605374 18585.981580 21005.682835 21989.460289 24587.666540 26075.350450 29249.463423 31043.700909 33336.154196 33273.114293 34525.354444 35095.459451 37794.091905 37963.170636 629.144766 4593.245871 9131.699025 9465.875016 10867.834524 13887.666143 15896.919209 18442.283754 20295.263823 22648.061381 23711.469816 26486.312301 26985.126672 31394.986831 30639.591433 33763.722259 35035.818563 35724.152099 34473.903727 36885.275336 -1759.706632 3736.922456 8958.302432 9167.807270 10427.180866 13236.476460 15768.721321 18211.168064 20333.638020 22444.264183 24381.080669 25621.311581 28929.251667 28333.269438 33159.195254 35943.691779 35463.338046 34288.438320 34661.331552 35408.952329 910.545448 4235.882313 8253.595823 9343.033294 10420.807164 13345.590427 15747.446476 18894.262403 20594.731220 21296.074384 23963.126053 26975.851311 27419.403298 30233.066654 31890.838885 32627.720686 34957.605608 34920.468376 34952.311143 33503.509640 2499.490476 4781.891077 7814.792090 7982.284621 10829.966690 12961.215690 16127.548100 18826.778134 19396.507346 22682.731273 22382.964399 24673.065626 28599.539278 30048.900307 31311.948572 34698.610820 34601.018456 33285.138810 33619.025172 32570.660263 826.235403 3635.108758 6675.455220 7844.591392 10149.378048 13029.321682 15885.012908 17416.283555 20255.455854 21001.918748 24958.497924 24565.176369 27692.633733 30945.529160 31790.060901 33053.327184 33923.798905 33540.106496 32554.747336 1225.742686 3927.820683 6583.150922 7483.960375 10660.781378 13648.577552 15409.027295 17838.443247 20058.562227 22460.591840 22754.292722 26801.812684 26459.245029 29258.443607 31314.853740 32786.673373 33003.147255 32213.994676 32509.397867 1823.590586 4484.133971 6151.253805 8045.783896 10769.261829 13288.520942 15576.720400 17660.168053 19765.349511 22325.258168 24081.660970 25248.904745 28192.378655 28744.283447 30227.333280 31398.447111 31862.449029 31510.920216 31088.272982 2413.981219 4516.289939 6080.820722 8375.767476 10856.747785 12941.132269 14992.829080 17691.842197 19907.968400 22249.775891 23669.610389 26081.237433 27095.230513 29088.041586 29128.514196 28285.183341 29962.079555 30081.503415 30607.131615 2202.246690 4226.269429 5432.564073 8207.464439 10739.569707 12801.602849 16125.819767 17072.380797 20596.420938 20800.509016 23567.806239 25223.224112 25114.867257 27277.097432 27599.545944 28243.985555 28379.505274 31866.259859 2421.759788 4168.840428 5722.948615 7859.098247 10446.947818 13623.408432 15532.833964 18469.063063 19078.483380 21793.367316 23200.376344 23513.977172 25752.375566 26300.249380 27774.593361 28208.478127 28890.036248 30723.433701 3747.219392 4377.203237 6016.982125 7755.740539 10640.959968 12374.651642 15391.933485 17504.949149 18923.741525 21467.277279 21325.388559 23924.948696 24616.658322 26571.512715 27661.862406 27563.483135 28825.980027 3658.913643 4637.495957 5490.304458 8345.999182 10137.991107 12922.629989 14560.096729 15970.193198 19001.414868 20165.028080 22276.751955 22147.713284 24644.307137 26297.712299 28724.606107 28604.830540 28670.982323 3726.740737 4409.897137 5905.400101 7346.034475 10171.426028 12154.707532 13430.507962 16132.927326 17453.724494 19227.896512 22031.472430 23036.801012 24316.242674 26825.180405 28103.293569 26420.728106 28905.821737 29244.291669 3469.627646 4179.591950 6135.281141 7707.496904 9434.312192 11463.296367 13848.291657 14824.335810 16498.964461 19253.525727 19410.745799 22617.827911 23497.493498 25210.957224 24723.178961 27820.835282 2963.315662 3800.972866 4885.884154 7385.095290 8964.399419 11273.720629 12999.259159 14163.155588 16808.364188 17183.589261 20571.850509 21123.569794 22631.415326 23750.760081 25112.304669 24711.667722 2520.871993 3331.514352 4832.247244 6300.418823 8167.683374 10629.494443 11703.476476 14524.845634 15323.701474 18540.486382 18882.529234 20451.281589 23054.524367 23367.863074 22566.444075 24319.012262 2309.219933 3008.258413 4301.723866 5622.885652 7904.756859 9990.345542 12185.811503 13613.865769 15928.907136 17242.455926 18388.242142 21002.184966 22147.172747 21769.602637 23180.862876 2205.687473 2948.220554 3906.061117 5982.325709 7865.395911 9887.375636 11905.246185 13876.070879 15196.974459 16979.001244 19231.921373 20365.594497 20761.602679 21240.025489 21999.276015 2574.878123 2949.335947 4022.298665 5785.226861 7563.100401 9556.895599 11659.298859 13190.288818 15415.970192 18038.019407 17482.666698 19812.114789 21710.616808 20717.792791 22153.898630 2438.395586 3270.606554 4415.820104 5427.533799 7713.395507 9088.787188 11207.811428 12980.927520 15367.147477 15997.742886 17557.015852 19056.269386 20501.103887 22063.418825 2544.197815 3127.139589 3641.537570 5754.559819 7677.804781 9560.279175 10350.692797 12991.750993 14148.066844 16491.118006 18216.753695 19775.534327 19084.733061 21571.046119 2325.096497 2855.031484 3997.443464 6157.382724 7546.702991 8747.159549 11186.025235 12289.477462 14887.624798 16883.115150 17885.486135 17268.010895 18523.205071 20520.930343 2450.737253 2914.957826 4479.710853 5632.191058 7093.767358 9024.169586 10316.018441 13101.749448 14610.970555 15703.385070 15525.370591 17445.545851 19098.608094 2095.869545 2783.971031 3937.551094 5525.420154 7174.793131 9032.312198 10613.481619 12639.962761 13217.390403 15025.987501 16060.828693 17119.579418 18360.299393 2289.016402 2860.130199 3585.655866 5323.537210 7164.314763 8652.528340 10988.873995 11434.450859 12998.863783 14407.687014 15562.090322 16277.135085 17930.805504 2115.116977 2862.959222 3685.637588 4921.117335 6802.412839 8741.498566 9768.687396 11461.235612 12394.497913 13437.694902 14035.406290 15796.587079 2187.608608 2922.440978 4073.309901 5185.608301 6839.607201 8272.617293 9910.035951 11703.526425 12628.156717 14764.611837 13704.567472 15819.804721 2125.072048 2863.070433 3774.399225 5653.210751 6861.246297 8220.639900 10005.085787 10516.260380 12896.695091 13985.654912 14095.885365 15993.987130 17225.123034 2305.361286 3046.699155 4508.129704 5234.456522 6623.150166 8559.092586 9327.606805 11444.202308 11810.261511 13207.701767 14576.214204 2159.962460 3066.580487 3763.038075 5337.299399 7006.995264 8136.342422 9798.899862 10810.430987 13372.695547 13185.731489 14671.582708 2113.047089 2672.263045 3993.481820 5253.832237 6772.100112 8758.083444 9912.758748 11960.691077 14172.915235 12530.920566 15497.729648 1663.740787 2660.561520 3646.192494 5156.172698 7275.970962 8338.282162 9912.235375 11015.425295 11426.786522 13656.726132 1804.805384 2477.936644 3700.822891 5339.107579 7104.714754 9062.816656 10144.957381 11443.086135 11703.374505 13142.668839 2156.584976 2837.514845 4066.127336 5763.578773 7144.152081 9030.703802 10567.111005 11278.749635 12254.882409 13377.040530 1989.919940 3082.721280 4154.556786 6476.658437 7827.491396 9615.978479 9947.177305 11392.950766 12856.011862 2409.298924 3166.802613 4197.050541 5730.062336 7961.832899 9689.142958 10855.541161 11731.851577 13192.654816 2221.207885 2933.822597 4320.919672 6073.337181 7725.106166 9812.467982 11164.290268 12199.776544 13365.983342 2456.211889 3283.913599 4767.985120 6356.673805 8354.159570 9498.218376 10583.455714 12507.986820 2667.326317 3431.122746 4526.698821 6745.524637 8503.256354 9673.834226 11175.669426 12302.852020 2688.236901 3801.376705 5002.600075 6174.857272 8654.566927 9938.553607 11053.622851 11980.992215 2621.499300 4012.723453 4901.359229 6694.242504 7888.344503 9803.588560 10826.515894 2827.684669 3649.365407 5216.856677 7214.068800 8432.391786 9386.538877 10221.879977 2960.989092 3939.819508 5474.733965 6964.201636 8791.761198 8867.934648 9839.709163 10227.731634 2821.348443 3921.536666 5076.805246 6854.730453 7138.259136 9019.105544 3033.528742 3766.278217 4964.719602 6230.382368 8085.601053 8452.157218 2730.008038 3372.957069 4655.533362 6895.783506 7132.451645 8112.176404 2509.795139 3611.074950 5061.378242 5767.671480 7179.948530 3038.578352 3805.371707 5412.158960 5973.711628 6885.998904 2532.678044 3691.267568 4841.028671 5521.136198 6494.050272 2898.778655 3535.526453 3860.995322 5563.982033 2566.851271 3052.123919 4510.167531 5094.024885 2702.793180 3555.611335 3781.623157 4592.696433 2558.155201 3327.416653 3397.742936 4207.749558 2486.409241 2852.856708 3460.051592 2044.567100 2808.604911 3286.355656 2259.728393 2836.362852 2096.856504 2520.049542 2132.041954 2415.021555 2225.095485 2167.220112 2072.178037 -2188.535644 -3036.760417 4856.666340 2529.101574 -3807.734491 -4121.548875 -3828.543719 -3807.831884 -1164.358403 15511.419464 578.988213 5364.593476 5738.631224 6277.808448 19428.225281 1312.155615 -4789.073067 -5724.747498 4599.923688 4341.670890 7402.557786 7624.143591 9621.882766 10757.757763 16499.881984 17663.233434 9098.505396 12405.008171 19633.480083 23580.944262 -6336.474355 3338.655476 5112.853920 4919.800349 6743.506490 8164.227701 10605.151677 15094.125333 12593.979446 18236.147222 18207.501736 14639.275673 20061.169427 24004.014554 25552.793094 -520.479252 2736.567269 3981.983707 6222.412866 7267.450977 9663.206949 10737.263800 12985.150436 14906.844888 17133.938066 18543.990842 20409.319627 19469.632428 22455.934773 25919.815991 1500.418130 2776.431195 4247.052763 6620.684856 8341.698558 10049.056982 11500.368508 13099.073047 15379.561239 16157.923564 17726.700720 19368.766970 21068.874842 23158.434736 23319.129258 2190.824145 3321.219687 4454.255434 6772.497918 8005.004396 9565.036640 11199.615527 12534.692418 13719.016797 15541.555963 15600.253810 17998.658141 19818.529384 20501.147861 24694.219435 2204.611631 3313.639207 4654.044713 5783.789290 7695.866451 9353.287710 10845.072301 12237.211937 13949.536949 14639.319882 15466.204966 16901.070785 18778.215718 21705.332860 20223.301620 1998.250902 2765.077428 4109.008084 5828.332645 7701.740335 9237.780115 10931.449171 12450.756667 13539.101894 16126.523519 17218.122699 18361.258395 19698.042377 20658.304185 22800.507976 1756.521596 2723.366255 3988.248455 5973.341659 7941.851811 9999.614668 11003.724044 12480.614880 13826.090302 14333.339617 14438.765814 16727.585604 16105.388724 19897.210438 18679.327945 2313.790675 3328.227681 4388.684446 6797.446289 8348.912051 9913.517988 11923.848614 12726.534591 14207.970488 14187.320862 13906.962865 14258.087951 15231.643714 15880.960590 18230.455532 2672.475013 3834.027464 5889.900946 6758.720777 8695.993514 8561.356179 9447.847100 10697.455886 10857.839352 13052.371807 12481.480544 13474.967532 13642.059147 14486.858852 16216.850453 3443.463287 5246.484148 5947.866394 6660.311808 7823.454088 8612.499752 9152.499103 10780.081318 11369.601496 9580.046519 11926.185936 14631.672251 14956.783771 15992.719545 14885.215276 4049.408478 5486.699481 6567.867821 5936.173931 8508.109437 9010.100994 6376.341473 8700.522552 11650.649447 9143.153004 8696.062337 11319.204371 10089.295400 11909.388442 12774.082740 4528.771554 5358.453385 6770.663959 6965.362401 10181.585798 10364.344421 4913.467196 -2204.890220 696.023281 -1805.158199 1064.777783 10432.932133 -831.060164 -123.667635 8646.732601
</DataArray>
<DataArray type="Float64" Name="Velocity" NumberOfComponents="3" format="ascii">