<VTKFile type="PolyData">
<PolyData>
<Piece NumberOfPoints="2186" NumberOfVerts="2186" NumberOfLines="0" NumberOfStrips="0" NumberOfPolys="0">
<PointData>
<DataArray type="Float64" Name="Pressure" format="ascii">
 26233.162072 26045.637649 25365.985036 25451.244181 25210.002413 25329.761313 25461.927302 25004.824838 25032.254169 25339.022882 25450.439566 25292.745032 25783.425169 25475.622034 25097.931208 25281.370442 25453.964129 26173.862744 26602.619144 26487.740099 26272.536327 25636.806129 24624.512829 24488.438627 24852.834850 24882.990722 25641.679645 25942.488605 26549.690030 26770.791485 26772.422734 26530.076313 26059.282331 25663.960943 25644.838549 25606.587174 25389.827056 25330.140786 25687.016914 26152.844074 26535.322862 26336.455099 26146.818958 26232.902741 26675.760235 26796.773742 26668.870937 26370.675564 25866.912025 25391.155517 25226.091457 25168.762914 25042.803674 24988.441430 25707.207757 25666.516178 25650.363204 25763.624520 25819.715933 25805.597082 25973.354606 26168.551457 26281.305830 26391.148654 26335.136230 26197.205284 26306.413346 26630.048271 26864.074714 26898.658805 26698.057790 26350.639654 26225.903800 26270.738624 26324.980440 26414.795160 26408.574824 26129.755639 25858.600190 25713.268000 25461.233731 25176.988253 25075.225576 24882.990722 24792.802574 24643.753366 24324.140173 24254.544717 24097.353360 23767.734418 23312.993311 22773.836364 22292.646428 21710.354294 21261.489511 21124.776271 21118.148457 21011.464724 20761.812425 20272.302953 20092.579066 20168.757158 20072.959735 19571.835727 19028.915220 18509.783706 18137.582311 17936.142063 17736.984691 17354.296212 17148.347478 16738.002330 16380.841663 16160.729821 15897.186426 15762.702874 15676.510274 15541.978466 15047.495647 14528.712492 14214.196010 14225.594161 14247.384013 13925.358693 13269.340932 12871.888201 12773.423608 12689.031189 12538.635563 12323.309313 11830.084802 11706.129160 11826.686607 11662.504469 11235.503587 10525.134179 10291.603519 10276.722457 10446.908100 10478.244826 10237.747638 9732.829996 9079.791507 8530.106763 7770.449679 7503.252634 7533.155406 7279.712994 6902.546544 6441.296169 6037.881680 5843.041100 5611.824616 5255.555183 5032.878507 4588.074593 4198.580710 3754.407904 3273.487469 2923.015473 2694.762064 2450.572744 2180.190356 2024.417778 24988.441430 24902.101411 24848.218730 24847.647379 24781.939973 24613.141996 24180.829008 23512.788413 22904.813308 22497.275086 22086.460286 21673.855604 21392.973127 21194.738250 21042.290733 20749.266484 20321.798400 20161.146449 20280.364606 20224.543760 19798.511323 19272.367562 18782.833115 18399.584043 18094.311627 17780.682958 17443.610940 17197.462010 16848.988321 16550.304858 16322.259585 16101.343037 15878.628908 15658.121437 15394.750043 15087.631560 14779.229111 14434.340467 14200.563321 14041.849312 13744.156038 13295.178092 12911.090897 12691.058033 12531.032955 12354.652898 12067.442676 11770.933516 11687.057370 11704.504524 11484.785493 11001.283538 10532.934470 10290.983448 10190.559368 10252.371342 10273.684096 9971.562153 9421.445500 8883.338374 8378.466787 7878.747793 7594.183836 7464.850036 7085.170165 6491.992006 6137.111284 5973.570860 5734.816291 5430.253157 5092.411835 4746.255010 4404.404645 4016.300183 3612.788111 3231.052175 2907.131990 2638.046589 2391.748192 2164.899056 2069.691989 25075.225576 24978.029641 24753.709034 24586.606598 24426.579521 24207.231124 23872.803499 23412.793700 23018.709140 22743.772949 22458.264278 22165.749463 21895.330434 21642.236823 21380.475084 21049.406463 20747.891976 20576.966351 20492.971843 20323.915749 20013.573440 19619.925542 19218.110906 18826.046415 18453.340813 18091.011620 17735.174000 17383.884626 17023.958847 16687.713386 16406.306085 16178.810206 15982.845205 15792.241414 15559.591449 15296.754340 15001.536596 14672.798285 14365.170476 14080.573720 13757.347905 13388.087524 13038.854071 12781.070397 12607.101935 12446.424417 12234.581394 11993.074389 11790.535506 11647.553936 11469.841348 11159.655915 10781.896654 10469.485660 10273.373083 10164.730429 10071.783904 9880.323482 9520.597998 9064.732859 8609.076835 8186.334961 7831.921508 7547.778601 7236.127633 6826.250859 6410.372561 6086.589011 5813.440835 5525.465139 5212.297034 4883.101559 4545.737311 4195.490731 3831.713692 3470.528997 3133.199113 2833.428200 2570.734501 2338.542714 2158.001945 2097.364204 2024.417778 1882.644728 1660.733585 1494.536753 1390.570757 1311.874389 1230.844810 1167.448752 1119.984082 1092.809613 1086.172421 1086.480993 1088.302186 1087.638633 1085.271282 1081.509018 1076.493470 1070.330149 1063.117210 1054.949672 1045.915382 1036.079630 1025.434409 1013.672324 1000.163439 992.045503 2069.691989 1999.736051 1875.807417 1701.495414 1541.873766 1420.249622 1331.849231 1259.682219 1195.457523 1143.678001 1108.397684 1092.416911 1088.479941 1088.917230 1088.531420 1086.829243 1083.861307 1079.698276 1074.419965 1068.110670 1060.856849 1052.745172 1043.861020 1034.287819 1024.112002 1013.467211 1002.888782 995.572744 992.552081 2097.364204 2061.104890 1989.604505 1865.296416 1707.429124 1555.731485 1432.195227 1339.260166 1265.214737 1201.676418 1150.572186 1115.849950 1097.688761 1091.407535 1089.836213 1088.732663 1086.820265 1083.773540 1079.563543 1074.243794 1067.892364 1060.595359 1052.442541 1043.529473 1033.971620 1023.951961 1013.860617 1004.553848 997.356833 993.775491 992.782655 992.045503 982.593384 965.720846 949.834171 934.376386 918.934218 903.417054 887.809119 872.115802 856.347331 840.514136 824.625687 808.690367 792.715646 776.708322 760.674777 744.621205 728.553824 712.479064 696.403730 680.335147 664.281285 648.250863 632.253439 616.299484 600.400440 584.568771 568.817997 553.162721 537.618655 522.202623 506.932578 491.827600 476.907900 462.194814 447.710803 433.479447 419.525442 405.874594 392.553819 379.591135 367.015666 354.857639 343.148384 331.920338 321.207045 311.043159 301.464452 292.507812 284.211247 276.613893 269.756010 263.678985 258.425333 254.038694 250.563827 248.046610 246.534029 246.074168 246.716204 248.510390 251.508046 255.761546 261.324305 268.250770 276.596411 286.417714 297.772182 310.718338 325.315741 341.625001 359.707813 379.627001 401.446569 425.231776 451.049221 478.966945 509.054557 541.383372 576.026572 613.059388 652.559292 694.606219 739.282789 786.674552 836.870237 889.962003 946.045701 1005.221120 1067.592257 1133.267635 1202.360846 1274.991861 1351.290943 1431.411097 1515.568689 1604.178627 1698.295163 1801.566041 1919.993051 1990.257540 992.552081 988.571001 978.734276 964.464953 949.496199 934.279315 918.908550 903.412424 887.810462 872.118590 856.350233 840.516791 824.628020 808.692380 792.717357 776.709747 760.675923 744.622070 728.554398 712.479328 696.403661 680.334715 664.280456 648.249598 632.251695 616.297217 600.397603 584.565316 568.813872 553.157878 537.613040 522.196185 506.925265 491.819360 476.898681 462.184564 447.699470 433.466981 419.511790 405.859707 392.537644 379.573623 366.996765 354.837299 343.126554 331.896967 321.182081 311.016553 301.436152 292.477767 284.179406 276.580205 269.720424 263.641450 258.385798 253.997108 250.520142 248.000776 246.485997 246.023891 246.663635 248.455482 251.450755 255.701826 261.262114 268.186066 276.529151 286.347856 297.699685 310.643162 325.237843 341.544339 359.624344 379.540678 401.357345 425.139600 450.954037 478.868694 508.953172 541.278781 575.918697 612.948140 652.444577 694.487930 739.160812 786.548761 836.740496 889.828166 945.907603 1005.078567 1067.444979 1133.115130 1202.201871 1274.822768 1351.100229 1431.161535 1515.138368 1603.161670 1695.322325 1791.235973 1887.635946 1955.752891 1982.545860 992.782655 991.392084 986.297568 976.354257 963.527018 949.172657 934.172505 918.871589 903.397806 887.803204 872.113985 856.346772 840.513964 824.625634 808.690351 792.715641 776.708320 760.674776 744.621205 728.553824 712.479064 696.403730 680.335147 664.281285 648.250863 632.253439 616.299484 600.400440 584.568771 568.817997 553.162721 537.618655 522.202623 506.932578 491.827600 476.907900 462.194814 447.710803 433.479447 419.525442 405.874594 392.553819 379.591135 367.015666 354.857639 343.148384 331.920338 321.207045 311.043159 301.464452 292.507812 284.211247 276.613893 269.756010 263.678985 258.425333 254.038694 250.563827 248.046610 246.534029 246.074168 246.716204 248.510390 251.508046 255.761546 261.324305 268.250770 276.596411 286.417714 297.772182 310.718338 325.315741 341.625001 359.707813 379.627001 401.446569 425.231776 451.049221 478.966945 509.054557 541.383372 576.026572 613.059388 652.559292 694.606219 739.282789 786.674551 836.870233 889.961992 946.045662 1005.220994 1067.591843 1133.266285 1202.356437 1274.977472 1351.243979 1431.257798 1515.068283 1602.544356 1692.972352 1783.901890 1868.496811 1935.585267 1969.508589 1978.305878 1990.257540 2076.407708 2233.418982 2385.459216 2537.677180 2694.297480 2856.625775 3025.297509 3200.761004 3383.421750 3573.674991 3771.899319 3978.433473 4193.545633 4417.402496 4650.045651 4891.381318 5141.183460 5399.099894 5664.644609 5937.188511 6216.138828 6502.046763 6812.408974 7101.756614 7311.561363 7678.523182 7979.338559 8494.304864 9606.533086 10234.298266 10795.387813 11847.223918 12875.533068 13821.951547 14595.217363 15073.069759 15938.278577 17017.339175 18084.570175 18970.962134 19733.556706 20430.022209 21083.893132 21759.737427 22453.992768 23133.265489 23528.776104 23774.407884 24980.968184 26233.162072 1982.545860 2019.781269 2110.679766 2244.577320 2388.331065 2538.365133 2694.322841 2856.441100 3025.038220 3200.467946 3383.107407 3573.343912 3771.554605 3978.078882 4193.186108 4417.043883 4649.693751 4891.040085 5140.851087 5398.757111 5664.212990 5936.376293 6213.833263 6493.971182 6783.262096 7070.262850 7313.556630 7641.620908 7966.709023 8492.895493 9459.347281 10136.752397 10726.693730 11695.535792 12657.206287 13629.875884 14498.303704 15101.934063 15980.642512 17006.767066 17984.050691 18870.421662 19699.851507 20475.535815 21217.452750 21958.885785 22603.310261 23004.581425 23447.788573 24396.099725 25465.193063 25764.433150 25641.679645 1978.305878 1991.759094 2039.310727 2131.954988 2253.104147 2391.396473 2539.509686 2694.861179 2856.799285 3025.350919 3200.777446 3383.426811 3573.676544 3771.899780 3978.433552 4193.545443 4417.401707 4650.042925 4891.372059 5141.152106 5398.993838 5664.286073 5935.977156 6212.039550 6488.302598 6758.800583 7029.013668 7302.260904 7619.484703 8013.914536 8586.739343 9334.726116 10052.843660 10782.611875 11672.470791 12589.363246 13482.152644 14326.793658 15113.647456 16008.043673 16953.558594 17880.763894 18777.764904 19649.350550 20486.159559 21262.667250 22000.515373 22779.811151 23591.879365 24333.259714 24965.283265 25339.541778 25467.546928 25614.446677 25707.207757 10264.679807 10303.974196 12648.335897 13243.504372 14356.106052 14800.825658 14806.789562 19122.462167 16029.272833 13651.247813 19901.109108 20168.135188 20809.803263 22120.601945 22301.560479 21343.254082 23578.481294 23522.591818 22378.783221 23842.067859 12977.072920 17373.798223 12388.282413 17747.024532 15147.856118 14725.974079 14972.764462 18064.122416 18691.032357 18888.663949 19168.588412 21435.230477 23485.850165 22671.429573 23317.967546 20864.808760 23188.075029 21546.487684 23623.988331 24174.345846 16001.185661 17212.090082 13468.134167 19541.567803 15301.437704 17079.939883 16987.623147 23034.976503 20077.552310 20510.540132 21011.393731 21343.958959 20549.121152 22615.691773 22760.656478 22978.360567 21752.775334 23888.585214 23503.102527 21972.256864 18763.666922 20218.062616 15332.933448 17374.258752 18038.300187 22018.256759 15896.235626 20436.833906 21098.042716 22154.710819 22262.977100 23073.431399 23840.060157 23140.185634 21656.228044 22122.801269 23667.219809 22790.426342 24815.234113 23960.816242 19768.107348 22021.005254 16226.525250 17207.483437 21917.850230 19656.737580 15955.338573 20629.905916 19845.772016 16551.906979 22983.730337 20743.988458 21453.927916 22926.583705 22577.761341 23693.931141 22807.815715 24071.696642 24118.112624 24387.024399 13406.859993 18897.830510 15450.318656 15296.421314 17095.431349 18105.519472 19998.713458 22356.056392 19123.433623 20103.249772 20834.837405 24352.781965 18564.055933 18956.995965 22021.944876 22479.624408 21799.871833 24643.895370 23893.095093 24829.692059 20429.840644 17314.977701 18836.587759 19125.150171 15551.669193 21445.046613 22286.454513 21752.265350 21336.920054 16985.475812 21817.079594 21752.130251 23377.369224 23558.950968 21707.344069 21699.494118 22425.670492 25281.508524 24906.121533 24759.626710 18099.133253 14959.886777 16287.598904 18024.783373 17948.497180 16122.830386 17344.050997 19776.353647 20792.401322 18211.569804 21837.198479 20316.568635 22190.321658 21829.310131 21951.272878 22633.821643 22185.818882 24011.413084 25221.983684 24955.318774 15138.433173 14453.826901 16324.576660 13598.580874 18200.264672 15462.757176 18919.648699 16141.949287 16408.802348 17237.348261 16538.563085 19230.512419 19729.236377 21867.112359 21887.517809 20198.198219 21898.225960 20443.576697 25040.631512 25298.574259 14738.816506 15577.387754 20321.645821 15262.349896 15656.449892 17272.898901 14656.077226 14948.611658 16990.359726 21656.215491 20168.047981 19314.565719 21247.980769 21184.063996 20375.082671 21332.315660 25254.872340 24550.815782 21318.317426 25247.301904 18079.885581 18286.153926 15410.233319 17386.949971 18023.611616 20418.276063 16377.954379 16259.465656 19099.227089 19263.402188 17113.027491 22685.162741 20123.772251 24996.454423 21272.937737 22530.102317 21236.322896 23042.585947 25622.367043 25026.096064 13934.242791 14067.681519 15483.777984 17009.637925 15151.515580 16774.208038 15562.882777 14322.535914 15615.660987 23007.227856 20516.220760 16036.638126 20494.044312 19173.292719 19176.103539 25426.058502 22206.765710 21318.408701 23708.556216 25359.844645 15328.072833 14420.034433 15122.860933 16346.555706 16176.771311 14963.115045 15114.827883 17116.998519 16635.258700 16169.969306 14496.551917 21447.122511 15586.671272 21205.421187 21399.629616 20478.848331 24205.770979 24028.007327 24644.858029 25420.674808 12593.604942 13791.401551 16156.810706 14153.833843 15665.615683 17300.519395 15945.964457 16953.368622 13869.057983 19502.650024 18467.953511 19288.166685 23639.564762 21308.224829 21493.653100 22036.305823 25115.917097 24911.484854 25310.055123 24400.220899 17133.049132 13455.703889 14156.648453 14547.635795 15748.643836 17740.110913 15014.579680 18215.509580 18943.695090 16855.455506 20488.802496 17762.609307 21411.199614 23123.197967 23149.874462 17231.635286 20448.647443 25061.585832 24049.153411 24415.492996 13457.133170 12712.859294 13364.335964 13709.144946 16399.002357 19092.903783 15174.227816 14482.896566 17175.992378 14711.832867 17673.714445 16451.346952 22693.086314 22367.158143 24135.615850 22218.955403 20353.952595 23632.651315 21754.216950 24467.507413 17880.409703 13070.936218 13326.967682 13842.633285 15738.307319 15415.557838 15399.773668 17313.554395 17036.928178 16152.856235 15096.891838 21643.007500 19350.578587 23036.549903 18221.824003 23154.198575 19486.679569 21822.970874 26014.311830 25419.788400 12526.481683 12399.749211 12556.170267 13359.017797 14113.060677 14213.720905 15281.120247 14769.273296 16185.537985 15589.308613 21517.300935 16314.220780 16193.775766 16150.597264 22334.207712 19454.232333 21712.525815 24191.183047 23442.536499 26151.271865 10217.319136 12868.032701 12898.350169 13399.022547 13672.335133 13960.430363 14569.909449 15071.626383 18962.938941 20917.896314 18859.108345 19612.835441 24387.585615 19203.243558 22702.297026 23904.174821 24090.606909 23028.106242 22116.748165 23686.872908 12958.622763 12529.943810 12515.939995 13645.825274 14725.598922 13695.138959 13232.195607 19022.009541 16126.372366 15669.479634 19122.417054 17104.650998 25752.846230 22460.209788 24577.729307 23910.141399 24759.924611 25940.320723 26533.364914 24852.617216 10105.794581 12430.421532 13567.940568 12840.256487 13571.355872 14405.114254 14555.665669 15396.741787 16190.748449 17931.655172 17173.540894 16305.532668 18567.375695 24242.051401 18280.965675 20114.055375 22365.925319 23017.227591 24043.039793 25415.467648 10497.029255 12475.238471 12790.464842 13522.884550 15627.102292 14092.442353 15137.122188 16281.512229 14956.300272 15117.153562 21569.100871 23808.678394 21781.689226 22115.678529 22374.154530 18076.361053 23011.100342 21348.262336 24261.765928 24623.866944 15075.816057 13008.453669 15866.679107 12867.488275 13485.679282 13165.948096 15766.991018 15134.544090 17754.899578 18119.326503 17048.761457 21693.927431 18252.674083 22768.681506 15641.173876 23656.912814 24268.708387 24099.070859 26312.195693 24172.271379 12483.843673 12728.828027 12881.829913 13868.750857 14779.786219 12939.024561 17127.595152 15710.436989 14606.624842 18201.961517 21010.799340 20040.953271 21219.966290 22149.600986 24561.164703 25799.705934 25267.153791 23555.305664 25384.596840 24956.746381 15485.219895 13807.259363 12780.636879 13565.591893 15598.558121 13507.483581 14119.321455 17173.456610 14100.365448 15477.984765 15688.251705 20519.741504 16270.952101 16232.992615 23066.670929 23143.910806 24800.662911 23863.387595 23386.953842 24419.775070 13335.126016 12608.002661 14367.733964 12788.190985 14538.134954 12968.057281 13260.558638 15425.414549 15391.771378 18428.875833 17318.545352 18570.129619 21753.484045 20873.186485 16067.960786 22654.653415 24034.438967 22814.277126 24478.260203 24957.240089 7525.748323 12264.962055 14194.530553 13757.538182 16036.104800 15852.617058 14473.174829 14407.654652 15123.561936 17042.954277 16566.324320 17949.001084 17882.704217 19936.673863 22949.290153 23241.910148 23822.414271 24117.342404 24020.028282 12260.217023 12682.968954 12741.624031 12748.925726 14101.221448 14381.232178 13519.766613 16294.577932 19013.861064 15686.790967 16992.780842 19438.014547 23369.787624 16981.082892 22860.088715 23646.330318 23634.729188 21866.185108 23732.222077 12662.230628 12343.130063 13608.877643 12981.336016 14397.622353 14481.491615 13240.992337 14678.486956 16980.480770 17796.147160 19051.349756 17384.092501 21441.548812 16362.616225 22075.142208 23606.510773 22432.222227 23023.079168 23375.097432 11653.305726 12913.295337 12884.348798 12701.769608 14044.916589 13291.754843 17484.943426 16701.447008 16504.422739 19280.299803 17811.288389 16944.871693 17893.456577 19233.360498 20264.160364 19644.788573 21747.957069 22168.374132 23395.410754 12722.989229 12355.819238 13778.664429 13948.035411 12677.897834 12441.328066 15189.646024 14910.362213 13742.015694 14560.566252 17276.686784 13942.964692 19686.324400 18041.589992 18050.801570 23777.272128 22597.130376 23210.523298 11612.210457 12858.321624 12972.733896 13240.261172 13674.464885 13426.315495 15464.583491 14796.312129 18459.433562 16520.449504 17274.655719 20797.653788 18794.575851 21891.206495 22013.070205 22527.759578 21992.997412 22757.095838 10715.412633 12498.837470 13145.107868 14756.308839 12850.470621 17080.677677 12620.227900 16783.082246 15126.167059 17731.925769 19926.200571 20983.764448 18170.820940 22595.478751 17227.789070 23334.728224 23439.831576 10804.608767 12630.308865 12291.256701 13133.173628 13417.400791 14206.296234 18928.909988 13470.117602 14262.754655 17925.722412 15943.033246 20065.509629 23360.243195 21147.840748 18708.856796 21371.371011 22167.020841 12783.475885 12052.756597 13749.492971 12321.208954 19555.303547 21502.722627 16637.700862 17371.754252 16364.931025 22048.341726 16492.349172 22621.191601 21190.383687 22393.990766 21726.340717 21163.111065 21296.167312 21297.042047 13722.883264 13014.856916 18928.300151 12558.235489 12946.307181 12917.604553 14287.384790 16784.911150 19764.914279 20405.451280 21965.459146 19993.586604 22190.316707 21087.710571 21939.534811 21103.631920 12808.403980 12311.632406 14970.106919 13423.312160 13203.506430 19707.112090 15317.549126 19314.856966 20666.271912 14120.489291 21171.203727 21298.971253 22146.144048 21104.193134 16049.469719 20462.804530 12510.670361 12930.360763 12568.525381 15061.677300 21775.447283 19602.288187 19468.668878 17263.268235 19413.772141 15951.968078 17299.367744 21886.909263 20820.094767 22149.095601 21939.703296 21302.400292 13480.764395 11753.394317 12990.241745 18655.853125 14181.658688 14171.126580 20257.302037 13804.869737 13956.843788 20620.209581 19116.374920 22241.357323 21646.323870 22240.975638 20671.286565 11606.903756 12106.871597 13348.250334 12648.438701 15997.623725 12953.795264 15389.914538 17967.536461 21487.825371 20605.641876 19977.670090 23069.135750 20234.258932 17390.117726 20079.256900 13507.550609 9965.549947 12853.990515 12217.548621 14468.709480 16519.279703 13225.252006 18355.649569 22056.442606 16581.571160 22016.305114 17462.595574 21910.982849 20756.907817 19975.190664 11013.102511 12275.665470 11576.762167 12033.739991 14950.951268 14489.374756 15610.630080 17147.684746 16301.557807 16172.548264 21629.177124 21882.698282 21156.078511 19851.064120 14139.869385 12033.226257 13312.785961 20736.309055 18407.400183 14996.045571 12649.644382 17259.729324 18037.578537 21566.044927 20618.788099 16688.671639 20416.367191 19611.673793 11923.469883 9144.362747 13433.555520 13462.188055 19932.138632 13195.867113 21135.445651 17454.101837 14586.796785 15128.638453 19660.261768 20011.704396 17855.270113 18950.605353 9647.958780 17863.991129 12721.639727 16154.249950 18519.099200 17733.116404 21481.937866 16714.753953 19095.776106 18512.314658 21844.422887 18626.914220 18387.220780 18167.248105 13784.104544 13548.765799 16238.412855 11886.765822 18182.455910 12374.773217 19396.134165 20036.538434 21397.831193 21373.304121 20742.333768 18176.761307 13237.705257 15141.795291 20663.867638 15487.817993 18048.091415 21202.844965 19568.366449 12650.101452 20510.669425 18821.355396 20676.784928 17906.020148 18054.273153 15505.740973 13335.402782 13537.727691 18220.791138 12510.796372 18777.934722 13669.073365 17871.123117 19114.378955 18623.424080 16444.374070 17658.861823 12938.439765 13627.754154 14115.160168 11931.694761 11802.030659 14502.879593 16836.258962 21001.491868 15440.300396 19738.791843 18071.400824 17259.956999 13172.285082 12559.944122 12378.694902 19981.014375 12102.926495 20120.072212 21083.028260 17423.798758 19310.542111 19787.855669 19141.617681 17258.052923 17259.125483 6372.702894 17047.169962 15748.518821 19195.099570 15554.049002 13981.516779 15973.997139 22107.402376 21207.988846 18577.180210 21213.562414 16525.908574 10415.912125 13241.582087 14352.327819 20079.929039 20054.211328 18298.369909 10550.020701 21175.158602 13438.004015 16248.949142 10311.324566 13182.719926 12949.169207 13588.023167 8598.365769 19553.590238 16814.020394 20164.529184 15898.878408 18530.325146 16059.823243 12207.761997 17579.861348 13867.036305 15721.791138 16609.831835 12787.218394 16416.541794 18813.325026 18035.723616 15712.222899 13800.010236 14849.078601 12662.329143 17848.629561 17870.886283 17732.850477 16989.030284 21078.768373 21685.563576 18036.935923 1154.666117 9128.491147 6268.176379 17977.166477 14264.783497 17965.808252 14302.541647 21206.886772 18946.987591 15625.616847 5098.588311 15501.269446 14770.440233 14475.262591 18680.529349 17163.213563 18698.682938 19248.270198 15281.948070 10419.950606 10125.067674 15392.870957 12936.553804 15315.373976 20807.610862 16706.120245 13574.186844 15469.122193 10825.827160 11006.186775 15594.212185 16861.135912 20687.179894 18807.412762 20395.030304 19416.671403 14341.469335 12643.828760 15652.874292 14810.011409 15754.015322 14797.524120 16296.983600 15710.625663 21702.708323 5766.929786 11150.864231 10251.666566 15237.219314 20223.239869 16167.129908 12901.637710 16645.346514 2839.372018 15492.257710 14868.829522 15921.330314 13969.406408 14568.421970 20095.770210 14205.581896 11132.173233 7343.770681 15051.012937 16169.372117 16620.421855 18283.047298 14721.527888 11557.814644 13381.299155 12527.692944 12420.377369 19260.275083 15785.428111 12828.454643 12836.706624 11516.015652 18394.726215 5462.690274 16067.192763 17552.136454 12827.683752 12826.427097 8533.574485 15509.166644 17423.280319 14147.578263 12789.961496 17635.821866 1092.041997 14099.208446 16130.167541 18811.348956 14495.521950 19354.398198 11649.124827 17072.055895 14202.614750 13531.775534 13765.978300 12594.324841 1380.880390 15288.605613 14499.141816 18596.503746 12075.115896 10677.794919 16010.554009 15615.377223 14335.586199 18475.454449 7278.659829 12679.494166 12510.862581 9691.080984 11793.630568 11957.963825 11573.040793 12315.641958 14287.304863 11568.695684 5894.083205 11989.157877 14216.797796 1474.564826 12612.840200 11028.962769 10363.687053 13608.863130 14375.464509 15672.765800 10336.659883 14170.091295 6584.219715 10592.673976 12061.736339 13690.306096 10508.203029 12476.753241 17379.569801 7661.551620 9157.568728 14251.689053 9225.274050 14712.164670 7707.970075 7615.295843 11583.100282 14478.832449 13318.204127 13450.087145 12714.521772 12885.201387 13012.129583 14426.646682 11481.633536 15280.868282 7231.198465 14440.968555 7978.571728 8018.830970 13938.204808 10692.916505 13873.915372 12731.801716 12944.788501 13638.792221 13903.136215 14079.608156 14985.624292 13162.101827 18171.455437 15798.881060 13119.003957 13211.402218 13908.030545 14316.550156 14713.273657 10372.983212 13184.517860 15304.864025 16702.524323 13645.488563 18151.302588 18314.826188 15039.025703 13678.378987 13382.343545 11343.189209 14107.012614 14052.234832 13312.651529 12397.971736 11945.971701 10132.270350 12829.341592 13613.240748 16780.213928 12096.715384 13134.323917 17852.554112 18234.391319 15922.633338 13079.634113 12930.654360 14982.298042 15739.323444 12193.686478 13461.199851 15288.126782 13185.105743 13556.674927 14144.359425 14668.572758 16996.449839 16072.422325 13643.360551 13280.977093 13156.575938 16185.480123 14490.480941 20696.272930 13102.891413 13546.970580 12805.011971 13373.022215 12894.263740 13002.823485 14434.926221 13394.048994 16181.429836 14202.090390 13731.513302 13761.560674 15486.112010 16239.917698 13471.666934 13119.615587 13039.911830 13152.840630 13242.439305 12900.386708 12931.163432 13222.902466 15396.903988 14202.796576 14312.354878 14907.913645 14573.581408 14405.468351 14876.641087 17951.937159 12032.118799 13238.803911 13556.494999 14672.408329 13745.557722 13057.560401 14014.353920 13891.598852 16482.582850 13794.947918 13774.474247 13418.060413 14568.041363 13805.066218 17921.828141 13094.988630 13268.948513 12922.951354 13737.480233 13697.678883 14006.154588 14535.339666 13180.352746 14097.606797 17100.433383 13592.543083 13991.046699 15242.070365 14819.597986 14352.709819 12924.566749 13751.988123 13809.545740 12916.033928 14140.405446 14907.450769 13555.916984 14384.039095 12841.554983 14033.757794 14766.050222 14801.262808 15353.092454 18284.844002 17189.471371 14179.062563 12968.449583 13624.989425 12959.803998 14057.233114 13665.069933 12849.248380 14230.280853 15728.036839 16867.177899 14486.118560 14046.606079 14356.905095 14088.655251 16456.100273 13018.128427 13082.681098 14203.555002 13952.228362 13872.165303 14384.292501 14297.599328 15500.159378 13565.404971 13621.658915 14131.396272 14783.577909 15912.084167 13990.043209 14887.595565 13254.786876 13936.006758 12968.130592 14155.210497 13942.136727 13511.152861 13718.440075 14046.761126 13457.361275 13397.162497 14094.418684 14813.969709 13595.046252 13557.532078 14157.978678 13120.023396 13918.833577 13522.128764 13648.545482 13426.058792 13843.301037 13653.532713 12758.936591 13014.555778 2586.458638 12411.554269 13232.145599 12456.571892 14979.892193 13518.941031
</DataArray>
<DataArray type="Float64" Name="Velocity" NumberOfComponents="3" format="ascii">