<VTKFile type="PolyData">
<PolyData>
<Piece NumberOfPoints="2186" NumberOfVerts="2186" NumberOfLines="0" NumberOfStrips="0" NumberOfPolys="0">
<PointData>
<DataArray type="Float64" Name="Pressure" format="ascii">
 26085.423943 26042.462487 26173.493038 25533.752071 25222.357834 25313.534508 25857.897105 25772.959383 25931.088972 25848.188554 25586.804665 25905.064669 26608.697116 27196.081654 27250.342720 27132.809425 27228.264606 27470.336643 27019.014575 26500.440575 26208.712886 26327.337973 27040.909981 26579.094261 25931.873679 25760.259293 26487.897107 26584.029359 26298.119232 26110.380350 26091.989450 26165.306484 26159.993368 26341.399236 26451.003532 26180.260447 25904.615981 25980.694703 26547.648382 27253.060213 27863.147126 28110.935899 27878.118448 27528.578764 27401.159770 27537.086751 27515.764703 27412.549841 27345.365583 26989.736112 26317.551682 25848.038170 25689.949376 25571.202659 26233.496475 26339.517128 26548.596708 26581.477226 26442.699882 26435.579603 26459.708580 26398.055260 26322.838949 26395.293115 26377.854037 26249.554807 26229.375889 26318.892655 26504.552220 26770.937966 26990.650942 27085.120449 27085.420724 27147.023506 27362.539586 27518.177112 27485.949076 27340.198918 26924.886281 26359.683629 25919.567912 25497.673331 25307.629573 25760.259293 25362.586224 24890.039202 24663.528186 24621.183601 23992.786819 23441.742464 23191.321919 22908.676316 22756.486150 22231.300275 21783.935067 21500.321535 21241.078882 21109.104686 21217.814004 21275.351685 20946.265583 20248.881292 19405.393491 18921.487043 19097.823776 19077.072718 18345.141567 17464.163628 16950.809288 16756.790020 16553.436713 16225.571596 16167.197194 15996.853532 15711.925483 15671.629234 15718.580873 15443.259151 15285.366401 15133.117209 14835.466223 14299.019193 13680.559229 13382.989479 12989.538862 12418.563372 12267.462910 12397.021930 12201.348676 11714.406481 11139.700652 10750.693376 10446.701563 10376.290697 10111.564016 9571.870084 9176.401062 8758.264529 8421.150108 8438.086337 8347.853312 8136.383146 7767.588373 7662.769380 7518.833393 7123.864147 6525.127019 5945.096007 5518.216372 5565.221906 4827.239663 4508.078050 4362.737199 4328.619835 4240.029627 4143.299982 3813.362293 3490.286819 3268.987864 3120.388816 2991.857290 2796.090672 2521.283654 2348.827214 25571.202659 25642.298020 25680.796441 25308.769559 24679.384964 23896.903812 23339.089230 23354.707918 23503.423338 23245.126520 22557.089081 21980.009892 21609.623458 21380.418843 21381.603353 21532.111911 21545.096912 21117.967845 20296.783268 19551.044252 19242.320527 19203.785195 19002.439766 18452.351720 17751.469771 17203.168316 16841.234412 16655.870330 16467.344224 16272.538009 15975.085929 15735.233979 15602.938308 15567.249616 15456.861971 15258.510056 14982.261337 14650.290731 14219.386400 13754.611826 13359.629803 12907.713034 12485.889521 12353.538275 12288.082874 11995.686492 11514.577939 11008.274497 10580.638766 10329.439715 10215.732274 9962.138295 9434.345095 8925.365613 8573.174976 8478.250329 8464.961548 8334.650663 8083.576886 7919.307634 7799.928168 7480.845731 6914.497278 6368.750050 5999.992178 5565.686184 5135.583569 4917.789370 4653.644154 4424.634938 4383.350218 4278.427189 3980.650402 3681.126831 3457.518916 3263.831001 3088.209799 2914.567079 2712.305404 2494.018608 2397.728084 25307.629573 25266.075609 25208.589814 25034.590969 24705.136751 24345.528720 24006.451587 23766.276388 23570.612734 23199.379180 22736.645958 22304.620797 21918.369347 21617.901561 21433.821477 21314.240719 21160.140926 20879.290471 20448.000717 19976.030641 19588.141153 19245.429608 18854.715351 18413.908690 17936.787638 17451.247115 17017.642562 16735.040412 16573.091308 16364.745632 16063.829959 15776.120673 15555.203334 15383.213405 15237.945098 15058.938892 14839.813215 14575.715498 14228.942563 13832.245796 13439.110455 13074.344580 12747.248452 12491.710078 12298.731735 12075.733945 11739.271852 11293.102020 10819.374862 10409.436926 10097.421057 9813.720837 9471.741786 9111.318295 8822.671407 8641.043284 8538.622475 8441.658901 8299.784440 8129.998304 7934.493517 7655.608675 7255.925621 6782.803943 6329.356839 5903.390215 5478.465086 5112.751578 4820.038540 4573.821959 4387.394412 4236.567500 4055.482218 3833.355266 3608.222873 3400.842547 3208.384918 3023.417214 2837.060782 2646.537758 2484.166973 2427.279116 2348.827214 2185.597343 1926.597411 1730.722244 1604.821143 1505.097334 1400.307452 1317.170286 1253.448944 1213.400565 1196.219748 1185.720589 1177.319910 1166.888544 1155.285617 1142.861684 1129.780859 1116.157597 1102.087735 1087.653928 1072.921989 1057.923621 1042.596296 1026.505515 1008.891680 998.641509 2397.728084 2320.781178 2177.891909 1973.857151 1785.366157 1639.385180 1529.553021 1436.506548 1352.571930 1283.833414 1234.388891 1206.804042 1192.263415 1182.604744 1172.546644 1161.655090 1150.019671 1137.736511 1124.899325 1111.596140 1097.908079 1083.908425 1069.662125 1055.226253 1040.657448 1026.067291 1012.061837 1002.534044 998.550576 2427.279116 2389.082533 2309.203535 2165.802489 1980.835966 1801.282463 1652.787047 1537.734195 1442.915904 1359.975675 1291.810297 1242.710643 1212.394294 1195.245684 1183.459928 1172.642429 1161.518832 1149.789949 1137.449124 1124.562942 1111.212935 1097.479824 1083.440334 1069.171314 1054.768175 1040.403949 1026.500265 1014.038372 1004.550341 999.802901 998.445282 998.641509 988.238922 970.047749 953.337663 937.368722 921.629797 905.976564 890.353058 874.730618 859.089382 843.413009 827.687283 811.899849 796.040262 780.100082 764.072956 747.954670 731.743159 715.438495 699.042841 682.560395 665.997305 649.361584 632.663009 615.913023 599.124620 582.312252 565.491718 548.680074 531.895537 515.157404 498.485979 481.902504 465.429108 449.088758 432.905229 416.903074 401.107617 385.544945 370.241914 355.226164 340.526143 326.171137 312.191305 298.617726 285.482441 272.818511 260.660066 249.042362 238.001842 227.576185 217.804365 208.726701 200.384906 192.822127 186.082982 180.213594 175.261606 171.276196 168.308081 166.409509 165.634237 166.037504 167.675989 170.607754 174.892180 180.589888 187.762652 196.473297 206.785592 218.764130 232.474210 247.981703 265.352925 284.654507 305.953266 329.316094 354.809839 382.501227 412.456780 444.742782 479.425262 516.570027 556.242737 598.509036 643.434746 691.086136 741.530268 794.835447 851.071779 910.311914 972.632112 1038.114143 1106.849641 1178.952230 1254.594887 1334.131789 1418.492910 1510.929713 1616.790864 1679.545181 998.550576 994.343247 983.792009 968.612129 952.942703 937.249146 921.592998 905.965307 890.350134 874.730754 859.090927 843.415410 827.690313 811.903379 796.044186 780.104300 764.077370 747.959181 731.747669 715.442908 699.047066 682.564340 666.000886 649.364719 632.665624 615.915044 599.125982 582.312893 565.491580 548.679103 531.893683 515.154622 498.482224 481.897736 465.423288 449.081849 432.897194 416.893878 401.097225 385.533320 370.229020 355.211964 340.510598 326.154207 312.172948 298.597896 285.461092 272.795594 260.635528 249.016151 237.973899 227.546452 217.772781 208.693202 200.349426 192.784600 186.043341 180.171769 175.217528 171.229796 168.259291 166.358261 165.580466 165.981147 167.616985 170.546046 174.827716 180.522619 187.692534 196.400292 206.709668 218.685262 232.392378 247.896895 265.265135 284.563734 305.859519 329.219383 354.710182 382.398645 412.351298 444.634424 479.314053 516.455990 556.125888 598.389385 643.312290 690.960855 741.402120 794.704344 850.937547 910.174142 972.489697 1037.963791 1106.681005 1178.731950 1254.213967 1333.227735 1415.843392 1501.713058 1587.923586 1648.803694 1672.756445 998.445282 997.021748 991.649942 981.090035 967.558446 952.587248 937.137795 921.558955 905.954822 890.346386 874.728570 859.088753 843.412816 827.687224 811.899831 796.040257 780.100080 764.072956 747.954670 731.743159 715.438495 699.042841 682.560395 665.997305 649.361584 632.663009 615.913023 599.124620 582.312252 565.491718 548.680074 531.895537 515.157404 498.485979 481.902504 465.429108 449.088758 432.905229 416.903074 401.107617 385.544945 370.241914 355.226164 340.526143 326.171137 312.191305 298.617726 285.482441 272.818511 260.660066 249.042362 238.001842 227.576185 217.804365 208.726701 200.384906 192.822127 186.082982 180.213594 175.261606 171.276196 168.308081 166.409509 165.634237 166.037504 167.675989 170.607754 174.892180 180.589888 187.762652 196.473297 206.785592 218.764130 232.474210 247.981703 265.352925 284.654507 305.953266 329.316094 354.809839 382.501227 412.456780 444.742782 479.425262 516.570027 556.242737 598.509035 643.434743 691.086125 741.530234 794.835334 851.071410 910.310709 972.628178 1038.101302 1106.807728 1178.815413 1254.148277 1332.673216 1413.742439 1495.164831 1570.843735 1630.825743 1661.156136 1669.028636 1679.545181 1756.309789 1896.219236 2031.765847 2167.630535 2307.662364 2453.106426 2604.609925 2762.657602 2927.710324 3100.250588 3280.800089 3469.927618 3668.251050 3876.430748 4095.146061 4325.038798 4566.597287 4819.944820 5084.494924 5358.458134 5638.266527 5918.137173 6202.361662 6458.633250 6763.846149 7397.346751 7846.294504 8475.323677 9792.050923 10523.157537 11157.408106 12325.980402 13334.792366 14149.632514 14742.160921 15362.153552 16574.899304 17695.305967 18630.785960 19585.570354 20483.077851 21218.734396 21973.130349 22696.797164 23175.156494 23703.035618 24259.580538 25219.913738 25650.777079 26085.423943 1672.756445 1705.901662 1786.861111 1906.155835 2034.314030 2168.229613 2307.667781 2452.921230 2604.354515 2762.367743 2927.395811 3099.913102 3280.438710 3469.540637 3667.836801 3875.988445 4094.677241 4324.549947 4566.104375 4819.480597 5084.120133 5358.276728 5638.397127 5918.346798 6196.396689 6479.678807 6797.219863 7326.320153 7836.044589 8472.431890 9570.209591 10383.131582 11056.786427 12089.251318 13040.972632 13867.352236 14605.461748 15311.659892 16403.553043 17512.216966 18544.235163 19570.484212 20519.235618 21308.239393 21969.308079 22660.953359 23318.459165 23816.310564 24142.303986 24549.970475 25384.807665 26337.203458 26487.897107 1669.028636 1680.995208 1723.322502 1805.824944 1913.757702 2037.052920 2169.261515 2308.163806 2453.260689 2604.657384 2762.672204 2927.714816 3100.251968 3280.800506 3469.927727 3668.251035 3876.430630 4095.145801 4325.038435 4566.597582 4819.950061 5084.523908 5358.584274 5638.752452 5919.948037 6198.659442 6494.797922 6853.433601 7313.867819 7862.916621 8566.160248 9430.553261 10269.504828 11099.871547 12039.773208 12941.552536 13745.826068 14512.221961 15359.018875 16393.119482 17460.230049 18502.014766 19516.511904 20480.354160 21377.655911 22232.663636 23071.876590 23841.164571 24459.737658 24974.627099 25454.827643 26029.616883 26384.075321 26316.321330 26233.496475 10572.611359 10636.689218 12466.949736 13105.599428 14472.298066 14970.485899 14971.978087 19656.414734 17020.420119 14055.545532 20679.759071 21008.448733 21970.285156 23101.626569 23166.169747 23041.889176 23757.321134 24166.178254 25793.801504 26772.253836 12993.343752 17799.728913 12967.512647 18275.796437 15774.415646 14951.453388 15180.608654 18647.104369 19232.570072 18834.489711 19755.404128 22455.097983 23896.990205 23210.056698 23803.185850 22135.443422 25432.846993 24994.350327 25822.786118 26064.470772 16084.396810 17950.378093 13433.841033 20093.412902 15103.238718 17857.810742 17961.419346 22982.811242 21048.557653 21766.419848 22227.899076 23055.315939 21339.394587 22900.109973 23137.430410 23080.556486 24638.230885 24440.680657 25751.596963 25964.230211 19220.775090 21017.154355 15888.902756 17286.688718 17512.981404 23171.452037 16171.548213 21639.200860 21551.657828 23149.842011 23120.901937 25386.022436 23617.765075 22981.914412 22682.788980 26115.520192 23884.098167 23091.302860 24920.455231 24461.347575 20522.682479 23015.836674 17050.052939 17672.078125 22302.127317 20367.075265 17002.317922 21607.352859 20558.442493 16832.046258 23663.262001 21836.613667 22568.711432 23606.021651 23245.362757 25305.318346 22869.698645 23635.253625 23590.313917 24254.814101 13490.258516 18960.562573 14791.384111 14510.316823 16897.125386 18004.819149 19939.177968 23789.155051 19717.173304 20812.374038 22217.024481 25857.482980 18892.354448 19249.783195 22950.979076 24582.465505 22984.364214 24546.463370 24559.702690 25012.198880 20562.828100 16958.968011 19100.921563 18719.595065 15021.902342 22343.865583 23100.335143 22434.688074 21685.236260 17085.692045 22134.080984 22199.709669 23579.480610 24303.066357 22372.323673 22205.952226 24363.695292 25499.560975 25892.618518 25619.666774 18531.317413 14330.670661 15717.284662 18185.406785 18089.219132 15728.215001 17080.195798 20107.012219 21676.293424 17888.651164 23240.115303 20155.992461 22904.466661 23050.831412 22796.333423 24590.992710 23285.168618 25828.912968 23578.843041 25815.185044 15015.144439 14574.120451 16065.703794 13323.715646 18247.083654 15069.663494 19073.934913 15954.260198 15977.494903 17251.089185 16567.326784 19211.677133 20447.048224 22156.641374 22173.416772 20303.054081 23229.190251 20382.772971 25820.200551 25129.499458 14743.752459 15932.540803 20525.514862 15509.687161 15774.865507 17698.907265 14609.303954 14773.869605 16484.608809 22151.890140 20262.678188 19226.802916 21619.275286 21759.172193 20391.114670 21599.985968 23788.539648 25886.180581 21710.488390 24903.527812 18571.505063 18538.751457 15334.144102 17346.472278 18440.194855 20690.836744 16613.708669 16772.564281 18940.682045 19208.621151 17044.812860 23844.407368 20208.346141 25515.892196 21614.308103 24803.134845 21423.876726 24103.289858 24709.268078 25608.931542 12960.268055 13198.989224 15182.442408 17818.976580 14999.392931 17149.356986 15937.645987 14255.789127 15747.478126 24075.029149 20422.340851 16469.128926 20433.550378 19085.508471 18797.986844 22913.330051 23655.684539 21383.688182 23520.278222 24969.688076 14992.105050 13924.266173 14741.346392 16306.904212 16800.141904 14618.844484 15595.763253 17672.485478 16664.860992 16613.551298 14548.380513 21712.414409 15886.954388 21310.651946 21672.812960 20452.389048 23388.960096 23813.015745 25603.275504 25463.184070 13226.959298 13373.846787 16179.784117 13574.764008 15753.978341 17826.776360 15626.172998 17567.513344 14106.484222 19447.226719 18565.041173 19484.473554 24913.206957 21382.258219 21314.050536 22652.867017 25810.286348 23266.658939 22720.669011 26074.619444 16892.852887 13094.042371 13422.774520 14194.917963 15738.662411 18028.371216 14765.438812 18628.971645 19382.021528 17843.720518 20685.131058 17967.327064 21846.343920 24174.588518 24506.945899 17440.977005 20637.249972 27134.936273 23577.142772 26390.627497 12382.701429 13264.559585 13342.275558 13295.334883 16756.582374 19461.785093 14432.359230 13693.457234 17457.800069 14407.493445 17635.350537 16336.187075 23912.759702 22999.727475 23945.666532 23444.977017 20259.760098 26229.788134 22157.196570 26702.347221 17637.036808 13935.155547 13309.039052 13315.735613 15241.640071 14516.882492 15021.527115 17446.547831 17671.561263 15568.613366 15015.265122 21840.995313 19660.562916 24214.021416 18495.574591 24309.841135 19479.593385 22705.837231 26288.424350 27078.396294 13374.221073 12839.478617 12570.666029 13481.701897 13768.781291 13944.564278 15328.270305 14046.315306 15668.247575 15448.027868 21770.431690 16778.791276 16415.149579 16452.425593 22781.711622 19510.097686 22358.743149 24264.020120 25711.454112 25662.226901 10387.144424 12762.337528 13378.423091 13872.849325 13119.144368 13808.235428 14174.626876 15110.581657 19398.760940 21041.074628 18779.995822 19905.305584 25976.594183 19289.220953 23646.876321 24949.302178 26606.394072 24160.600013 22808.944750 25097.457511 12739.172943 12909.608189 12694.149146 13425.526709 13957.753478 13388.795457 13146.777759 19609.418509 15928.131942 15323.355697 19732.810054 17830.244577 23381.685396 22909.151697 24549.911928 23600.766668 24606.464421 25416.501696 25016.006866 23120.104830 10630.368653 13411.817017 13098.629582 13409.137501 13458.637008 13734.627887 14096.321635 14749.299702 15770.154750 18410.856239 17500.936437 16718.640439 18766.512719 23472.008583 18620.673940 20730.083010 22965.998717 24224.633358 23514.820086 25892.115859 8737.902226 13433.446161 12972.878176 13370.862522 15715.131385 13790.151276 14626.902859 15957.972152 14303.096990 14525.232816 21840.019292 26035.755742 22108.374503 22681.718979 23056.609830 18461.418384 22752.962040 21419.655544 27151.639562 26750.074194 15295.248386 13359.010038 16071.741335 13469.536410 14172.294184 13568.215484 14853.029544 14392.261956 18737.844090 18784.920961 17860.082160 22097.212820 18645.073552 23542.108206 15522.592952 23712.715483 26307.198650 24437.154533 24739.274049 26936.716388 12794.317930 13537.166126 12973.586650 13540.636824 14301.752024 13650.538907 17010.235025 15231.931993 14434.861770 18369.763002 21131.362317 20426.108558 21487.131545 22743.600032 24214.101159 23143.576722 24339.169448 26300.184750 24214.917382 25683.486417 16604.471115 14073.649473 12977.865018 13691.267094 14895.869570 14032.263492 14230.378534 17045.492197 14500.602240 14963.440698 15147.109756 20593.943551 15868.613758 16894.637923 21908.183739 24445.501822 24971.130737 24885.825695 25875.539717 23795.455049 13439.251215 12907.750677 14129.382759 12653.863102 14056.742497 13176.944731 13955.618990 15596.969479 14939.623320 17990.323610 17015.600123 18678.346878 22736.590000 20831.733664 16333.084208 22739.069416 23686.398416 23699.572730 25137.808027 25681.895015 7150.312527 13164.499423 15239.208334 13983.946945 15477.063544 15805.653788 13898.090815 13863.143555 14321.242759 17534.791556 16361.501119 18763.900733 17968.454732 20348.318403 25187.951812 23375.594672 23274.419954 26184.643364 23572.886026 13151.959694 12655.061548 12749.423875 12725.102682 14639.868920 14952.778353 13875.401732 16212.602167 19582.759845 15630.122379 17206.686907 19482.176312 23923.275909 16656.128817 22125.608246 26718.820752 25782.724563 22499.279489 23901.192924 12953.306740 12933.993239 14032.143553 12959.750747 14652.822846 14863.362095 13270.589663 15226.716154 16755.924478 17598.723611 19240.779547 17599.871977 21492.392878 16063.129545 22641.981172 26860.137628 22978.011809 25084.247388 24159.004019 10184.553354 13796.326080 12874.836155 12796.966752 14858.522107 13380.708282 17435.730734 16444.627657 16472.932065 19295.229848 18028.565464 17031.269754 18575.710166 19289.483014 20230.622122 19995.291234 22146.423283 22578.247213 23906.682192 13039.913743 12520.668998 14215.425256 14038.981388 13202.006869 13504.101259 14957.301589 15342.937793 14275.491984 14947.520970 17417.049623 14494.477818 20326.725605 18478.398493 18232.029242 22235.261546 23336.236876 23148.291107 12041.917968 13447.767421 12960.265713 13291.324596 14340.539408 13612.924565 15863.785473 15440.939595 18804.820740 16041.959165 17238.466283 20975.590359 19609.674100 22335.311201 22602.370918 23473.378706 22391.082006 22852.931359 11204.012897 13287.531694 13333.165741 15508.081993 12898.547835 17063.059457 13636.417763 16429.670974 15210.743781 18437.949725 20413.829598 21146.565721 18509.488872 22977.750819 17630.568706 24132.388534 23278.115914 11973.274287 12909.223287 13422.141621 13372.147573 14151.871982 14592.182848 19564.216266 13598.263604 14363.692160 17877.422610 15606.585733 20260.655293 24160.905024 21412.736202 19181.594216 21636.378516 22307.044744 13240.028661 12784.135830 14155.327694 12890.658788 20103.999067 21939.664758 16699.184343 17093.295052 16700.115057 23039.296472 15749.074482 23072.551823 21255.078236 23589.377208 21905.340780 21162.595819 21833.306013 21834.524465 12725.652284 13989.757805 19274.190694 12976.313977 13914.015560 13680.867624 14831.259508 16413.370569 20049.581084 20330.594503 22783.033171 20157.604376 23651.904497 21401.268000 22245.547606 21344.777836 13455.445050 12757.522577 15711.837060 13731.124837 14178.243689 19465.157790 15920.398174 19731.977688 20699.645615 14614.086207 21463.210723 21740.212560 22293.126183 20844.820017 15759.566250 20336.267906 13074.962409 13081.258029 12751.629179 15306.804153 22626.974387 20073.299125 19718.211682 17307.207521 20125.987874 16763.225484 17432.820713 22749.142595 21167.476232 22530.668276 22580.314917 20924.774857 13282.882707 12754.202889 13517.548000 19000.279781 14522.525482 14482.636230 20571.187068 14526.735610 15052.148115 21118.956835 19165.874883 24054.501251 21877.599449 22293.200775 20723.500289 11674.733787 13112.904499 13949.232254 13499.989102 16676.789596 13718.109444 15987.024735 18100.212608 21820.302787 20793.063109 20178.856806 22811.762298 20451.335831 17378.462435 20741.179739 13048.675233 9866.805832 13232.858985 13399.154690 15216.405658 16386.125049 13629.980689 18585.986531 22483.472941 16475.930128 23923.544710 17332.386142 22206.832319 20974.482260 20479.570100 12165.933251 13325.359619 12606.525397 13185.137808 15829.720091 14968.072101 15893.854207 17309.155828 16298.239168 16589.986937 22076.361933 23739.447103 21224.699877 19770.831675 14343.530906 12854.829906 14535.445768 20095.422449 18682.689133 15275.305008 13215.460168 17553.029081 18236.499071 21609.076124 20809.774830 16534.678208 20673.124876 19013.504460 10668.535159 7641.235166 14249.163300 14621.150082 20002.071683 13595.140969 21165.512895 17270.589699 14780.561022 15915.226436 20248.809018 20115.816264 17895.578264 18800.173530 8703.349745 18010.204506 13362.402014 16666.001490 19948.665781 18049.735660 21574.587009 16143.361643 19496.507304 18895.513875 22798.373483 18980.556161 18865.589786 17909.708881 13712.264114 13492.264032 16804.559370 12266.015698 18749.097322 13009.900129 19672.639444 20171.744424 21943.028244 21316.933763 20883.771969 18209.330216 12518.150448 15469.515519 20827.895665 15913.378729 17758.468626 20967.418096 19526.020180 13656.235519 20674.347543 19256.781515 21001.731913 17080.294861 17827.353010 15512.081457 13403.653351 13140.557849 17825.622741 12860.228902 18754.171396 14067.584962 17057.222185 19432.053242 18207.632487 16043.610400 18032.253267 12824.972055 12797.153771 14279.976478 11502.969134 12093.284288 14947.089211 17275.169303 21064.273454 15526.870338 19782.225325 18362.595796 16684.227774 12968.791397 12844.396931 13259.393420 21022.007043 13225.134429 19327.472615 21629.419590 16927.286507 18801.883813 20819.588884 19514.639942 16682.307703 16683.723891 6340.156307 16326.407844 15550.773724 19489.122699 15783.052866 14778.791257 16125.145996 22643.597496 21016.025319 18989.980679 21641.262777 16352.817890 10025.723468 12317.375392 13828.129430 20421.640657 19143.764642 18286.132908 10331.238483 21465.220288 13112.539842 16008.906123 8659.844527 13206.375498 13544.358502 13871.086453 9081.955773 19457.431431 16211.415306 20549.111687 15887.935064 18772.305698 16024.382280 10959.793085 16938.612337 13200.791164 15838.257996 17108.524278 13468.629170 16238.270758 19061.974352 17524.569092 15691.524209 14602.846781 15257.793815 13294.962981 17187.227562 17632.334532 17744.432284 16720.169844 21202.701203 22358.780508 17933.012420 1300.587572 7792.272447 4185.361968 17167.138589 13565.296203 18173.495822 14346.484641 21742.945502 19324.580720 15452.424289 4023.118858 15418.651577 14910.827375 15015.877173 18833.661370 16587.812559 18833.886506 19267.163467 15084.359262 9402.851791 10329.093954 15797.212141 13977.163967 15230.512348 19805.892613 17227.667815 14287.516772 15042.489059 10123.355539 10839.663485 15559.729571 17406.860783 20464.627855 18588.334969 20462.396087 19797.924152 14694.380109 12429.112221 15100.900221 14475.988274 15749.434946 15478.095877 16093.180478 15640.776415 22240.213466 4697.357374 10380.836488 10168.156617 14807.239743 20034.417727 16104.743580 12439.870942 16647.614462 3091.290250 15570.132688 14812.470023 16041.873571 14878.379680 14620.834295 20147.067584 13363.787187 9784.925227 6368.150895 14225.566869 16608.094372 17167.812818 18559.173181 14341.491660 10871.065259 12792.851426 12122.601154 12895.375262 19585.329483 15650.808008 12299.908307 12820.039744 10490.001799 17963.530061 3453.074253 17160.060896 17291.351997 12296.134448 12295.719037 7258.552718 14414.095223 17311.772929 13330.471649 12223.404302 16890.449470 1216.245424 13750.774284 16189.921838 18796.720925 14429.102332 19014.934033 10999.962943 16784.801001 13134.148691 13223.618703 14331.679182 11999.620676 1596.430935 15263.014833 13205.812219 18226.189258 11191.726185 9343.050025 16206.852776 15902.162430 14054.621715 18513.428681 5804.189538 12382.775119 11333.398845 9421.759982 10560.616491 11114.410635 10763.253268 10656.166698 14881.382902 11802.247681 4061.404349 10555.837248 14248.115452 1706.903845 11784.857328 9756.858735 9340.795402 13445.212828 13819.526383 14845.634869 9286.827259 13593.238969 5949.776009 8825.425079 10019.584382 13020.621493 8705.512834 11968.854382 17611.279287 6554.924544 7905.605430 14218.329671 7972.612683 15039.943139 7373.436253 7177.692718 11310.409202 15109.224772 13118.779238 13825.477209 12337.908887 12839.889379 12914.453881 14517.667328 11136.695270 16190.890978 6639.017026 14552.783855 7871.888912 7945.825157 13637.955553 10834.812209 13880.947844 12585.585233 12944.172719 13634.452723 13868.867668 14244.343802 14399.441456 13290.525635 18151.268594 15834.609677 13014.005207 13059.954738 13671.999690 14208.209504 14668.202866 9854.438074 13265.795354 15336.459319 16648.361306 13729.851730 18033.627443 19050.895746 15349.751473 13611.912607 13145.159128 11596.215674 13895.764990 13434.973082 13074.964969 12000.975337 11759.155734 10786.476993 12530.694679 13277.310425 16602.394854 12237.306689 13024.765604 17962.586757 18759.839325 15363.966158 12950.269150 12490.542345 15054.665493 15997.413337 12208.766361 13163.513039 15375.568574 13262.100293 13452.271241 14064.444366 14601.220509 16653.143051 15200.859999 13351.003713 13349.214053 13282.687650 16697.268962 13907.364645 21815.999209 13350.301991 13418.065758 12744.587988 13182.621790 12991.130490 12898.983156 14132.918595 13381.437401 15925.544882 14123.893035 13769.343007 13826.236523 15301.103116 15606.859570 13312.007990 12956.080547 12515.580653 13053.174001 12822.150020 13025.964238 12947.792387 12893.564970 14974.453612 14062.810915 13968.200472 14403.890937 13904.799992 14038.525922 14657.588598 17678.026548 12355.837181 12944.873664 13078.702981 14259.254826 13727.699994 13187.446317 13686.587882 13732.976388 16059.491349 13741.827804 12998.227908 13488.466711 14194.361677 13739.618203 18071.974285 12800.103144 13025.706613 12958.539180 13406.845250 12905.786865 13394.901484 14785.847149 13067.351305 13955.682012 16620.077705 13425.369314 13900.864794 14839.451503 14403.336134 14182.158867 12831.213955 12940.936477 13078.679172 12901.089763 13443.837516 14741.787142 13571.814699 14030.573396 12848.345665 13510.140783 14532.461434 14785.887770 14963.012739 18392.081728 17280.330157 14646.900059 13026.295923 12963.353709 13056.159031 12844.551320 13178.659373 12930.404880 13696.766565 15810.808099 17218.808344 14303.212945 13120.131683 13790.861023 13583.985647 16751.735438 13209.230284 12877.175570 13160.764908 12748.138326 12864.219949 13945.522610 13846.275266 15134.746003 13184.114684 13109.909218 12905.953424 14410.652629 15933.230150 13335.283283 14066.607633 12958.699617 12832.494621 12927.858379 12829.404814 12885.664408 13130.604639 13108.271509 13654.387976 13137.097820 13239.607168 12726.032929 14247.676870 13238.724121 13136.625451 13497.256725 12875.844856 12745.412653 12949.253830 13145.559752 13076.889525 13223.671700 14293.434504 13342.274700 13230.153369 2940.565075 12492.537032 13618.562009 13021.598811 15162.828379 13188.711093
</DataArray>
<DataArray type="Float64" Name="Velocity" NumberOfComponents="3" format="ascii">