<VTKFile type="PolyData">
<PolyData>
<Piece NumberOfPoints="2186" NumberOfVerts="2186" NumberOfLines="0" NumberOfStrips="0" NumberOfPolys="0">
<PointData>
<DataArray type="Float64" Name="Pressure" format="ascii">
 31186.426019 30398.764092 30377.583025 30929.071223 31115.361603 31541.977775 32021.953324 32922.442559 33768.841421 34104.083705 34659.355558 35110.684863 36031.652129 36869.142287 36415.237079 35822.141015 35833.176650 37587.494293 39221.289188 40098.360494 39937.012540 38688.240703 37235.987285 36466.212580 35312.554736 35350.493726 32186.321888 32013.095386 31630.631522 31481.270034 31975.273100 32712.944840 33164.678428 33681.877612 34320.099393 34550.441964 34734.266515 35153.870932 35681.083212 36445.719020 37315.031210 37566.713967 37229.866348 37249.525692 37780.140059 38109.100780 38689.099953 39397.322407 39369.262754 38501.112615 37444.067371 36461.416296 35751.956116 35808.264922 32100.728735 32238.632780 32481.936083 32687.511203 32884.643348 33343.654980 33977.597058 34422.002657 34755.804784 34936.824394 34922.155145 35069.529575 35503.373779 36064.190602 36680.143331 37244.599433 37586.128469 37789.837780 38156.780855 38551.491993 38733.566176 38957.174283 39218.907819 39035.463615 38331.390402 37407.052073 36623.164768 36275.645084 36324.637663 35350.493726 36210.187619 36755.707789 36709.258633 36634.338126 37471.275072 37672.611667 36329.757453 35088.178134 34902.562917 35536.018222 35576.104211 35622.036399 35778.712957 36162.525027 36207.278030 35008.741309 33072.452052 32716.697107 33006.885734 32700.938559 32149.687380 32265.104311 31475.554706 29867.774035 28711.713889 28739.687382 29054.561958 28107.311896 25445.270081 23508.986600 23560.951796 23528.738391 23269.723634 22309.161383 20769.918775 19399.436985 17995.399406 17000.207873 15951.726281 14839.097861 13474.810490 12485.282138 12016.691730 11247.885637 10221.177794 9349.006258 8713.398490 8084.613953 7225.880568 6397.961307 5585.321985 4974.907809 4543.146104 4082.730997 3627.919979 3258.596379 2857.208085 2442.643281 2188.672126 2044.273767 1952.932814 1912.142311 1840.746794 1721.805228 1598.586063 1474.417826 1349.995324 1227.004188 1106.930562 990.898509 879.744789 774.038287 674.102429 580.040021 491.743238 408.859666 330.649521 255.354460 182.002405 146.095951 35808.264922 36381.771388 37389.120202 37570.530615 37483.851122 37850.873422 37998.184394 37245.360548 36369.081810 35962.217583 35571.921968 35338.734392 35230.673664 35400.902303 36088.968112 36421.071214 35560.911115 34404.563206 34168.100269 34275.998958 33705.566954 33050.732535 32607.325596 31775.236712 30539.215302 29616.553580 29190.623023 28858.462659 27960.970635 26216.104335 24826.520600 24353.637634 23841.336603 23038.284791 21995.557318 20732.132460 19263.175434 17965.749450 16897.053410 15873.790494 14675.453724 13383.171702 12430.735564 11868.108855 11150.834996 10131.386812 9183.512571 8499.680839 7841.414108 7105.044037 6379.177255 5721.524135 5148.167451 4628.295445 4137.257163 3676.659552 3277.853283 2896.203350 2565.012027 2331.078190 2155.226817 2021.765283 1914.643372 1805.833122 1688.097422 1565.134781 1439.974355 1314.901997 1191.746146 1071.907010 956.451587 846.156146 741.526080 642.829169 550.132808 463.339484 382.223324 306.506246 235.848592 175.108512 151.176367 36324.637663 36640.748729 37363.834321 37723.774337 37792.731366 37950.728810 38093.374940 37848.430419 37234.851847 36516.682691 35857.335783 35444.603836 35317.444936 35435.364276 35755.086630 35958.674256 35723.151239 35209.769146 34887.925094 34684.401423 34211.570009 33556.913238 32886.419055 32091.099953 31148.701540 30277.914911 29654.678693 29153.417571 28402.457696 27226.875601 25950.616821 24867.038777 23936.056030 22964.722502 21918.425910 20755.649079 19466.004197 18225.775586 17129.595126 16079.304304 14967.509814 13862.643648 12888.086191 12072.575990 11273.527195 10384.367532 9504.497754 8741.866096 8061.872192 7386.623324 6714.681821 6075.030968 5475.211136 4912.026358 4391.795742 3925.106146 3512.454002 3143.433250 2816.976946 2541.561764 2315.847850 2136.475779 1994.288206 1871.096164 1752.187489 1631.239384 1507.675543 1383.155171 1259.599300 1138.574162 1021.302192 908.712069 801.454786 699.932116 604.339614 514.720446 431.045956 353.368125 282.173437 218.800052 170.470527 154.655843 146.095951 126.097264 101.632466 82.363564 66.596593 53.540130 42.765998 33.933749 26.746317 20.940915 16.286597 12.582581 9.656295 7.361053 5.573558 4.191291 3.129849 2.320313 1.706866 1.244637 0.897763 0.637629 0.441103 0.287709 0.161083 0.100725 151.176367 140.288338 123.651389 102.897111 84.565997 69.059403 56.040658 45.191080 36.213720 28.838258 22.821581 17.947686 14.026891 10.894468 8.408881 6.449779 4.915884 3.722796 2.800788 2.092710 1.552073 1.141321 0.830293 0.594863 0.415799 0.278018 0.172217 0.109275 0.083342 154.655843 148.365635 137.927431 121.557293 102.439131 84.656487 69.215612 56.169555 45.281223 36.270981 28.870587 22.835928 17.949573 14.020546 10.883059 8.394743 6.434605 4.900853 3.708667 2.787993 2.081445 1.542373 1.133127 0.823521 0.589558 0.412520 0.278812 0.180597 0.115123 0.083613 0.074095 0.100725 0.078657 0.049484 0.032276 0.021453 0.014303 0.009509 0.006287 0.004130 0.002694 0.001745 0.001122 0.000716 0.000453 0.000285 0.000178 0.000110 0.000068 0.000041 0.000025 0.000015 0.000009 0.000005 0.000003 0.000002 0.000001 0.000001 0.000000 0.000000 0.000000 0.000000 0.000000 0.000000 0.000000 0.000000 0.000000 -0.000000 -0.000000 -0.000000 -0.000000 -0.000000 -0.000000 -0.000000 -0.000000 -0.000001 -0.000001 -0.000002 -0.000003 -0.000005 -0.000009 -0.000015 -0.000024 -0.000041 -0.000068 -0.000111 -0.000181 -0.000294 -0.000473 -0.000756 -0.001198 -0.001884 -0.002943 -0.004562 -0.007019 -0.010720 -0.016250 -0.024450 -0.036513 -0.054120 -0.079617 -0.116248 -0.168456 -0.242273 -0.345808 -0.489860 -0.688668 -0.960825 -1.330370 -1.828061 -2.492854 -3.373564 -4.530704 -6.038458 -7.986736 -10.483227 -13.655329 -17.651837 -22.644180 -28.827032 -36.418055 -45.656532 -56.800713 -70.123809 -85.909152 -104.446712 -126.038792 -151.041582 -180.027947 -214.536211 -257.248896 -283.812788 0.083342 0.079095 0.064180 0.045290 0.031027 0.021012 0.014118 0.009415 0.006233 0.004096 0.002672 0.001730 0.001112 0.000709 0.000449 0.000282 0.000176 0.000109 0.000067 0.000041 0.000025 0.000015 0.000009 0.000005 0.000003 0.000002 0.000001 0.000001 0.000000 0.000000 0.000000 0.000000 0.000000 0.000000 0.000000 0.000000 0.000000 -0.000000 -0.000000 -0.000000 -0.000000 -0.000000 -0.000000 -0.000000 -0.000000 -0.000001 -0.000001 -0.000002 -0.000003 -0.000005 -0.000008 -0.000014 -0.000024 -0.000040 -0.000067 -0.000110 -0.000180 -0.000291 -0.000469 -0.000749 -0.001187 -0.001868 -0.002918 -0.004525 -0.006964 -0.010639 -0.016132 -0.024278 -0.036266 -0.053769 -0.079121 -0.115553 -0.167490 -0.240943 -0.343993 -0.487404 -0.685374 -0.956447 -1.324603 -1.820533 -2.483116 -3.361084 -4.514858 -6.018529 -7.961911 -10.452601 -13.617922 -17.606604 -22.590046 -28.762920 -36.342918 -45.569351 -56.700360 -70.008439 -85.774043 -104.277005 -125.785453 -150.540490 -178.724916 -210.276400 -243.901779 -268.283567 -277.538762 0.074095 0.073834 0.068749 0.056568 0.042593 0.030270 0.020863 0.014130 0.009458 0.006272 0.004126 0.002693 0.001744 0.001122 0.000716 0.000453 0.000285 0.000178 0.000110 0.000068 0.000041 0.000025 0.000015 0.000009 0.000005 0.000003 0.000002 0.000001 0.000001 0.000000 0.000000 0.000000 0.000000 0.000000 0.000000 0.000000 0.000000 0.000000 -0.000000 -0.000000 -0.000000 -0.000000 -0.000000 -0.000000 -0.000000 -0.000000 -0.000001 -0.000001 -0.000002 -0.000003 -0.000005 -0.000009 -0.000015 -0.000024 -0.000041 -0.000068 -0.000111 -0.000181 -0.000294 -0.000473 -0.000756 -0.001198 -0.001884 -0.002943 -0.004562 -0.007019 -0.010720 -0.016250 -0.024450 -0.036513 -0.054120 -0.079617 -0.116248 -0.168456 -0.242273 -0.345808 -0.489860 -0.688668 -0.960825 -1.330370 -1.828061 -2.492854 -3.373564 -4.530704 -6.038458 -7.986736 -10.483226 -13.655328 -17.651832 -22.644163 -28.826978 -36.417879 -45.655959 -56.798850 -70.117759 -85.889505 -104.382916 -125.831683 -150.369067 -177.849788 -207.367311 -236.167381 -259.587387 -271.239780 -274.020648 -283.812788 -322.665908 -393.836322 -462.309531 -528.927854 -594.366564 -658.222253 -720.209058 -780.681720 -840.946721 -902.149066 -961.888564 -1028.796229 -1155.612957 -1413.401122 -1795.840021 -2098.492280 -2482.743934 -3212.564816 -3264.682662 -2163.409886 845.211044 2301.184987 852.458603 -2475.810661 -3187.968434 -2037.192850 -140.118750 640.352571 -663.942525 -269.822356 1337.310886 2373.262966 3229.219712 5181.112212 6867.557582 8786.079389 10781.975264 12742.166304 15273.462783 18235.063669 21336.057491 22844.854982 23579.497950 25358.455299 26852.876067 28175.002080 29527.580803 30237.628199 30624.249073 31186.426019 -277.538762 -295.251180 -337.332580 -398.706909 -463.632266 -529.357262 -594.554507 -658.348070 -720.299416 -780.697031 -840.890497 -902.633602 -964.701784 -1028.028493 -1126.396887 -1319.998725 -1607.188634 -1925.565816 -2284.715474 -2638.966779 -2521.869754 -1389.813596 192.876074 639.860327 178.377723 -467.908333 -884.501351 -18.025439 1378.368951 981.309958 -397.563498 -755.669122 -77.598405 1154.181097 2983.654289 4929.275673 6932.639950 9009.158751 11178.460757 13440.726639 16005.091930 19021.618547 21871.091971 23726.238469 24976.143349 26660.379626 28609.099380 30113.136802 31067.427888 31402.387854 31544.332129 31890.752859 32186.321888 -274.020648 -280.652047 -303.292874 -346.547704 -402.377383 -464.886812 -529.724784 -594.613675 -658.301936 -720.236520 -780.682125 -841.019652 -903.264518 -967.131396 -1031.139741 -1114.157885 -1264.592225 -1505.675114 -1807.590161 -2110.519673 -2266.306495 -1995.416500 -1186.722176 -352.170005 -101.158489 -373.166854 -450.443562 32.632538 999.746677 1597.847452 1043.727691 4.642033 -410.539474 70.064705 1253.177124 2949.134568 4913.605399 7072.498057 9353.052003 11714.676067 14149.370949 16644.912299 19194.948352 21551.360320 23430.912109 25026.076634 26772.777476 28702.531714 30409.094058 31499.396973 31985.788442 32131.111480 32203.481974 32173.407210 32100.728735 1607.886837 2078.035171 4605.872646 3855.218300 15503.103293 7148.791310 9249.394437 20938.436379 12404.145583 15893.517869 17809.203333 21308.130624 21709.805992 23917.692546 24043.755659 24455.587253 26105.206562 27852.094419 28183.414524 30049.494508 8784.439213 16299.178810 3445.757072 18094.502861 12390.609813 13764.486644 10834.705534 22377.547468 20680.526606 20844.831349 22221.884145 24453.816930 25058.916635 27505.990162 23733.166961 26954.502476 29234.154871 31049.343937 29627.480512 30118.082065 19852.950587 15754.594247 11309.373998 20933.060158 18833.606090 19297.473878 19432.262358 26100.716102 22430.077411 24580.204184 21715.210866 22324.171910 24980.663880 30097.267780 29852.461130 30167.022997 28536.820294 29457.556192 30552.980260 30963.539719 18092.598784 22776.943324 17247.857171 24675.143030 19985.522886 25360.630709 23990.997492 22851.989901 23655.585261 27790.175945 25145.686062 29596.685553 27752.825526 28187.811043 28895.954239 29780.616063 30805.203375 29426.113228 30367.083179 30710.558725 18233.299166 22010.721568 21705.413060 21691.352648 22664.056069 22057.908326 21837.980246 24902.455238 25275.059858 22902.270335 28604.116406 27210.323511 29087.309917 29674.212280 30362.214894 28062.339543 29516.330365 30075.432313 30241.005257 30329.430250 17685.732571 21881.115419 15358.941091 20450.480765 20695.001690 24914.070894 23310.371480 27236.481555 26542.005207 26334.662419 25864.119248 31042.714468 28431.438457 28369.187584 31276.679881 29860.129596 33281.871714 32177.636720 31434.347628 30643.067376 20628.919559 18122.499445 24637.381330 20016.754156 22167.506803 23058.292986 25952.326967 25656.914708 28561.381201 32061.915171 30129.555690 28648.161339 31329.992524 30855.048132 29031.765071 34344.207991 31146.584416 31443.523442 32256.891642 31645.098196 19799.367451 21457.545153 21808.097074 26275.273723 22498.184607 26489.411295 25026.259470 23658.290377 27492.418947 29775.226143 32934.364306 31972.816636 31709.051992 34862.601770 34535.905754 32965.260456 33656.031442 33178.784998 36044.424129 33159.082810 21646.338921 17603.057038 24355.542283 20023.450567 23823.975398 23714.049170 24632.726002 24168.482689 22102.427410 29645.138099 27257.022467 28144.235408 27231.953777 32966.570889 35123.873914 31608.188975 34860.265740 34761.069251 33927.485278 34120.960362 13440.404713 19064.950940 21874.998183 17737.032205 21407.802955 24810.327399 25287.818633 26369.443043 26830.978683 29650.820538 28827.975658 31138.928912 33168.377773 30095.807822 32859.074058 34467.585081 35444.589136 34332.111473 34805.689281 34518.618291 18423.529928 21755.473992 22132.833956 19035.843842 26711.817473 23338.424223 24205.458788 28787.777041 27661.704930 30245.794265 26731.393026 33604.172577 31736.270378 34005.045753 31426.336867 36055.430110 33960.474492 35444.876872 34349.963205 35939.940954 14085.591685 10481.040093 19076.082196 16708.815525 19912.031062 23464.348833 22781.673665 19729.253400 28200.741145 29923.768983 31098.102882 32933.212045 34659.482260 31385.820089 34840.108269 36692.158089 35417.844393 37328.632546 35970.795991 36109.904575 13628.726219 15862.190026 17528.508289 21269.501897 20816.074603 22656.746303 24908.041349 26058.568172 26061.063222 27376.228604 30111.057029 33478.194955 31662.839348 34939.097780 32691.422899 35622.505267 36978.753024 37046.987498 35675.317472 36382.392970 8744.127118 12790.031921 16410.444492 14103.248685 19302.564916 21782.729275 18372.006397 23461.215923 25111.245726 29479.323481 28897.155281 30500.297529 32828.682229 35029.172457 35670.286179 34361.406061 36147.070955 36447.202919 37643.035723 35751.424467 7762.593267 3768.341697 10271.705229 9670.470984 19480.797477 22433.545459 22723.869855 24388.611869 25320.428212 28638.187676 30913.271270 29240.113022 31678.797976 33556.899488 35514.762202 32567.308395 31836.371678 37162.600815 37048.152952 35205.318988 -233.341265 1662.022307 6940.239582 12843.799063 16768.483719 24785.204521 22629.040015 24794.170026 26838.537474 28244.852570 27028.146395 30760.853456 31023.088259 35342.864720 33512.094339 37763.979903 34246.127471 37317.772176 36930.112443 35199.668043 1135.465316 2004.258483 2914.868051 9271.717490 20474.744218 17823.220289 20504.998393 25059.140081 25328.786662 27315.877064 29350.143084 29498.970041 31359.493401 34041.952599 30668.128229 37116.891102 34623.816506 37290.577079 39485.257374 37749.713419 1625.713455 4284.392992 3765.985790 6955.210591 17176.006117 19955.471052 22222.902868 23536.011207 24457.971799 27856.794008 30795.935317 33476.819848 30994.126600 32606.208751 32858.846855 32261.281409 36624.099984 37665.718892 36962.444244 39602.575138 1771.641499 6840.981045 3602.876216 8297.536346 11124.033236 16262.345329 21369.142690 22531.977736 26681.735683 27423.641321 30579.918255 31251.631487 33405.398760 33711.533711 34399.687255 35220.975604 35832.385481 37568.671993 36101.629610 35535.675807 2586.878815 1630.595692 706.623580 3238.606250 9435.255904 10875.083754 19871.860788 24429.851139 24286.992552 25204.439396 28486.722671 28614.283142 33844.809411 34957.480601 36036.607497 35028.384752 37036.193901 38609.396073 39091.004122 38272.379034 12187.308235 1030.099689 1487.620100 10677.562519 6358.466417 15706.133886 19203.234576 19976.228956 21926.130773 26691.057007 29402.836759 31099.823388 35025.624451 34904.103723 35840.771989 34935.525096 35109.461363 36986.383508 34297.764253 38000.579995 10824.262713 16362.514539 2687.389949 5959.655492 7815.938414 14309.980864 18869.556003 21577.490035 22765.099443 26664.110130 29150.254882 32603.312496 34645.943616 34154.750039 35299.598069 35803.378058 35419.010857 35593.317208 37275.764433 37334.858685 2004.399064 2522.293996 5296.942966 5431.586387 10255.876610 16057.560424 15274.455479 17329.640986 24086.265452 27427.557881 27412.392243 31523.798174 31293.649861 35426.400182 35300.068529 35942.361777 36584.987245 38140.862131 35987.692795 36711.286923 1667.722536 1749.250201 1996.714503 8058.065830 10750.985676 12924.458846 16075.596473 19057.009705 22869.361343 25375.883396 28571.776326 29090.068220 33021.334275 32928.018986 35717.447223 35431.130635 35778.546020 36629.907540 36850.520509 36193.069742 917.849670 5876.881754 4110.254682 5975.733353 11582.407774 13038.552233 17943.297515 21488.588640 21262.043740 23658.476831 28467.807656 30968.355986 31143.641070 29550.264894 35982.197889 35921.717178 35615.406529 35333.104842 35224.335064 36392.597858 3063.367780 6389.558470 8081.338689 5323.563303 13379.784880 13272.311299 19298.969388 21057.577557 22427.203188 25774.432693 26279.692779 28486.240305 33988.392492 33265.040023 31847.335827 34816.105156 34784.899220 36769.448667 35803.057021 36306.859318 6907.302336 1961.719342 6425.045539 9034.788965 10013.756682 15061.946241 14763.505866 21331.431009 23666.836217 24061.977829 27773.941654 28398.328091 30761.351423 34878.128053 35265.556990 35632.090924 35702.210750 36579.849671 36631.111229 2950.923062 4733.235344 8453.832404 8395.941591 12206.819621 14840.910494 17321.876986 18195.420992 23359.791554 25296.695721 25602.512159 32740.900752 29721.660795 33013.093983 34028.375709 34419.208099 35506.564079 34597.591642 36204.779162 4100.883565 5301.312340 9497.882350 9135.290682 10656.475757 15054.940541 17824.855008 19608.440916 23636.668392 25410.278680 26736.154405 27992.279892 31939.050539 31760.372844 34301.408494 34310.567039 35521.754902 33828.972315 36503.639365 5739.369479 9289.736970 7772.518217 11028.037380 13829.603442 16425.260397 16780.948868 19763.100648 21601.184932 24956.501298 26959.480125 30184.513422 30130.694632 33858.934013 35413.010048 33742.344523 35253.029087 34245.612264 37464.193983 4783.086935 6595.417766 10387.631904 11456.231527 12653.439134 14615.995572 18727.698018 18255.476162 23500.175129 22763.563014 28893.143827 28972.727272 30050.110173 31049.455110 32026.608167 34416.218899 33088.414640 36039.801984 6343.682082 8229.842236 9383.683337 12011.521033 12832.196083 16693.888790 19812.039952 21134.773695 22777.332539 24851.462990 28564.946840 27404.783450 31069.123799 31211.456845 33798.282054 33266.206335 34540.760045 35493.388321 5624.011577 10167.376545 10638.332887 11834.433061 14172.908644 15067.235029 17763.908158 21466.253188 23757.702804 26345.458905 26267.102635 29537.188965 30499.050571 31186.856655 32900.499216 32565.989558 34671.971790 6897.011979 6492.198186 8712.936136 13433.680591 13198.085494 15255.554199 20742.055186 21853.327747 25312.291222 25878.152584 28700.434479 28348.707211 32307.833290 32225.546733 34671.578125 35389.205499 35452.512557 8582.880249 8868.280119 10797.323786 10359.466240 14354.002325 19520.979136 17829.955178 23325.375800 24799.664329 25934.864219 28400.974227 30721.590610 30553.941747 34904.673318 35343.825102 35642.161182 35464.764734 35564.066049 6202.073528 10570.581098 12328.126894 12601.728126 16413.707094 15549.467464 19432.809505 21929.081424 23968.723860 30286.870861 27733.690588 31206.070191 31151.503195 31182.566738 31621.440204 35301.217080 8583.388870 11060.108322 11312.764717 13855.702222 15222.745808 17313.073225 17063.163232 22651.720725 24787.332683 24861.649516 30016.363954 29721.754953 30977.944378 32152.646711 31679.657075 34490.039780 12051.292662 9162.095767 10674.177685 12099.734789 14984.709842 16463.435947 18659.823904 22650.378058 22896.016831 27723.859150 27130.452895 28007.904249 30616.546688 31127.373193 35232.338928 35449.033783 15780.027141 11454.949003 11678.835846 13667.204276 15570.127102 15919.100553 19513.324686 20141.881223 24695.343517 24262.224530 26987.431359 30609.690469 31038.125672 31157.131239 35654.324861 14837.364520 13210.860956 12183.463494 12499.106752 13337.021467 18254.004761 17764.833265 20720.525259 22313.928391 25714.026550 26700.457362 30952.818176 30522.423805 29621.951746 32123.313956 18310.009597 12585.261696 12668.426649 13014.547015 14019.048629 16122.565107 18501.138539 22383.661736 24837.494771 25358.806405 26893.251411 28785.410125 31819.954961 28268.503596 32194.519614 14829.466052 13210.594634 13292.861294 13738.425970 14947.494384 16958.548727 19385.030826 24705.207311 25048.793862 22557.132066 28121.813215 28738.063512 30863.521100 32121.261157 18368.357919 13039.601363 12789.999978 12956.655157 16320.481681 18103.433988 19923.939583 20120.990297 22272.900925 25185.833551 27391.093927 31208.934442 29461.476428 32525.919981 16824.492489 14513.640197 12957.709313 13826.984367 15574.376104 16478.816237 18270.762083 20750.554486 23348.760808 23290.635112 28346.940905 27705.981583 28857.758569 31872.569032 19894.777891 12839.694382 12368.294613 13806.146920 13992.288109 17081.783177 18600.206076 21126.220587 25982.227796 25457.642058 27234.321870 29188.945429 31787.535589 17704.987745 17509.075975 12829.924360 12049.324573 14351.253620 16433.985145 18864.853671 20712.097463 23086.520419 24135.195827 26792.951485 28400.214943 31766.704242 21914.175883 12866.122562 11331.344355 11909.092432 13967.640496 16322.636871 19842.945795 20744.479000 23850.353928 24210.112890 27468.911580 28793.850499 30531.943041 16914.537485 11914.831352 11111.563148 12578.007815 12711.023711 18219.014992 17601.724049 22835.648373 23366.560663 25193.510422 29496.651854 28931.754959 22042.577289 11152.297337 10733.261548 11173.842604 15710.778534 15199.330302 19995.472571 22648.677046 25137.821306 29036.571518 24049.239710 28419.546328 14109.849756 9893.391539 9554.524357 12355.836071 14717.438710 18285.160665 19956.547226 21955.658342 22419.316905 24662.497777 23591.612182 29297.423029 28798.620571 20832.696033 9709.612999 10971.271518 11556.206006 12595.068499 17158.042692 15730.382797 21676.639243 20150.099042 21559.367046 28259.783226 10096.814029 9557.546283 9045.498459 12362.667867 14677.378236 15869.439264 17926.896508 19309.675349 22935.992848 20336.235154 25441.996736 12645.333205 7945.550263 9355.613106 11095.334289 12362.332740 15717.756410 18190.545244 21265.840741 23099.086327 21407.641327 23472.548900 11406.550600 7476.051604 8060.546621 8989.984679 12817.526106 15178.837012 16005.124451 19775.444832 18892.623082 23359.262786 7514.627132 6526.537260 7655.125197 9345.884747 13329.915403 13137.136432 18751.008895 20646.343458 21102.651980 22678.043870 6151.539624 6144.430954 7581.162993 11045.772443 10578.731380 16325.523575 17092.988348 18053.123848 18429.792389 22820.913416 5880.699883 6694.424956 8584.291055 10132.830173 13455.624111 15198.332983 15394.279716 16825.376164 21220.824329 4928.242652 6429.636181 8455.223189 8957.256819 12871.540393 14108.733396 16574.166613 15393.309760 19764.057366 5510.851007 6212.655302 7057.972563 10262.737061 11594.794859 13817.284755 14947.335838 16838.122809 18326.509168 4741.970065 5869.098872 8154.168425 10508.145244 12712.076657 12151.938993 15375.647795 16878.739020 5348.040652 5980.892191 7219.733236 9453.571462 11721.001097 13049.252220 14172.732976 16394.796493 4908.802394 5641.881146 6800.448185 9499.448157 11128.801190 12540.067164 14895.141883 15010.176129 4996.535469 5910.198835 8364.989627 9034.427486 10964.498134 12939.663507 13732.894462 4764.618180 5397.687474 7327.852765 9558.414737 10370.247369 11536.857498 12514.490322 4024.205853 4933.200825 7921.863458 8555.210521 10309.281124 10735.275690 12029.194572 12168.132951 4607.023320 6275.005149 6738.803443 8796.900842 7962.342533 10783.812561 4320.844783 4769.332409 6163.646753 8015.996445 9353.976137 9902.598914 4115.749789 5033.614798 6464.383857 8106.182030 8498.161251 9215.836548 4104.008939 4861.342231 6589.409537 6621.942394 8353.421231 3973.025473 4983.150417 6627.395543 6009.766298 8077.368158 4305.948684 4801.389201 5220.955778 6288.668339 6951.377630 3909.328364 4305.715863 4849.117845 5729.039366 3368.778882 3955.792054 4957.079713 4956.430970 3389.684237 4028.454525 3929.870375 4561.067846 3131.561354 3528.009955 3827.059677 4281.836386 3140.318736 3363.438171 3584.127273 2963.139406 3061.790464 3332.874344 2948.118446 2822.622207 2433.253671 2389.157441 1971.387568 2162.063995 2060.777467 1903.584955 1894.642872 -2072.561478 -2182.859115 -1933.326663 -3387.934200 3342.013909 -3450.009582 -3251.284754 2012.223376 3846.844986 11746.821349 -6452.311620 3543.742745 -2007.620819 214.689232 13377.049118 3037.099675 702.083523 -3358.848087 2128.777556 4195.273142 9846.713751 4965.446356 7052.436457 3692.631081 13143.266232 11517.973826 1247.664946 9005.307006 7157.432334 16825.742283 1018.490040 4653.221784 3328.135453 8740.182955 8839.184276 12364.871203 10264.730661 15440.834925 3548.476488 14317.282115 5879.469205 4397.130629 13384.697738 18219.745116 15865.848903 2160.945274 5252.336041 3402.299760 6710.838182 8058.589309 11280.101090 5712.177180 8843.921817 10362.084530 14945.276648 14368.366806 12268.699373 7706.739425 18278.739009 19773.975610 5279.109955 5552.622610 5175.338625 6412.986672 7633.199148 7736.706706 10268.469334 12896.397792 11048.918563 10585.072328 15783.314050 14627.569795 17257.461820 14148.191863 18753.224072 3484.884066 4720.826524 5016.822411 8700.778780 7718.317783 8909.704710 8197.351483 10535.164186 15768.112366 13372.028208 17946.172809 13883.537525 16233.187854 18863.496777 19130.426567 3373.110742 4816.776922 6392.728201 6000.679582 6519.560736 9887.464738 10997.163747 16110.867587 11868.683604 12389.718254 12744.059215 11210.700223 15292.756418 17468.627654 19423.032103 4014.621779 4542.563604 6401.609583 6401.750035 7710.961813 8811.763031 8133.854851 11694.162600 11280.128074 14633.805739 9953.757904 15112.167804 15721.041495 18333.464856 22149.000047 3958.724999 5500.423250 5612.661835 5971.581221 9298.023736 7999.076856 11688.559976 6573.235324 14118.467947 12604.554102 9925.570552 17074.079895 16018.137649 18962.527398 13246.869099 3457.466352 7257.376214 6476.143562 6755.295456 7384.915750 11497.344415 9673.703256 10341.270201 9618.720907 13008.295881 13494.351557 15599.560584 14455.893846 17748.404884 14385.239628 6067.037168 5677.291359 7326.925530 7257.837138 8004.727474 7681.263198 8218.603592 11303.255691 11958.265870 15339.675460 10055.708252 15840.365590 10111.774469 14308.532480 17853.233451 7036.280456 5807.491934 7861.757342 8775.999495 6801.718373 8375.720539 7488.504406 11835.718946 6509.684778 3840.304822 5824.866319 13415.971687 13959.245911 15771.341939 11047.316561 5497.877766 4268.946408 5633.552029 4467.903914 3316.262383 8183.699437 3474.092951 7337.251171 5110.022252 3200.847301 5593.052600 12623.103614 4265.027876 4713.822248 5529.117198 3526.046213 2151.409157 2745.293649 2774.550194 2991.604168 3089.475072 4472.415490 2549.966468 13243.225284 1222.738874 3270.832927 2293.680004 467.649747 -2317.553984 5715.245334
</DataArray>
<DataArray type="Float64" Name="Velocity" NumberOfComponents="3" format="ascii">