<VTKFile type="PolyData">
<PolyData>
<Piece NumberOfPoints="2186" NumberOfVerts="2186" NumberOfLines="0" NumberOfStrips="0" NumberOfPolys="0">
<PointData>
<DataArray type="Float64" Name="Pressure" format="ascii">
 25891.415661 26107.042317 26140.068508 25946.897471 25704.927993 25235.159531 25488.461439 25501.469416 25245.312043 25816.958080 25770.583583 25425.432223 25441.630885 25750.601924 26359.035174 27062.630262 27289.749157 27146.987402 26836.217396 26338.365337 26205.988155 26173.841802 25553.029027 25271.360238 25667.650366 26015.189250 26149.400501 26041.582382 26255.751240 26500.945992 26502.533252 26470.933328 26321.500292 26056.221190 25970.867478 25895.170787 25790.111211 25752.804111 26101.555787 26234.505495 26424.372260 27027.928604 27797.388962 28097.214362 27785.918179 27200.192327 26881.740696 26708.600420 26609.439906 26400.722544 26277.716481 26191.144158 26076.267084 25985.235923 26322.366267 26286.648461 26144.633630 26053.979324 26071.232209 26031.926273 26007.473990 26164.278898 26437.831359 26786.906155 27013.420578 26905.363397 26855.732469 26911.313382 26800.715994 26671.899511 26819.293427 27100.575709 27205.140102 27100.764696 27093.163423 27320.119264 27490.282533 27235.102507 26735.489589 26324.721422 26080.574364 25900.344438 25794.974093 26015.189250 25897.169462 25522.049671 25254.951447 24760.130817 24291.135487 23838.693121 23210.815109 22364.821713 21828.494032 21480.146191 21290.132152 21228.644800 21088.986990 20872.518652 20863.107353 20639.138375 20148.448044 19681.468747 19441.396456 19147.749777 18908.623640 18694.944837 18238.924400 17589.747751 16787.699967 16275.783487 16166.642303 16072.275997 15956.424348 15585.115701 15365.264625 15347.932647 15159.584474 14890.286230 14676.074312 14299.572494 13854.023337 13557.315161 13458.995299 13364.536465 12997.725768 12545.481204 12334.234685 11963.114737 11909.748658 12058.745801 11845.007957 11512.537803 10887.009929 10335.493006 10093.942074 9914.308958 9846.423645 9837.379001 10072.206392 10121.378642 9870.639005 9455.633307 8938.082271 8660.235701 8232.750781 7977.902674 7890.418196 8348.207320 8418.752495 8153.519641 7566.371102 7061.236856 6883.314182 6763.367424 6782.609889 6662.232664 6134.649884 5507.745134 4620.848275 4126.595574 3566.237333 2926.037739 2390.492994 2150.526167 25985.235923 25945.104845 25882.813207 25818.351219 25599.620039 25062.008890 24261.990059 23446.079781 22770.255586 22168.145139 21711.578928 21503.042937 21435.408567 21476.590678 21478.359824 21191.213964 20671.544159 20117.256722 19725.510327 19549.310631 19432.887620 19150.205629 18842.428618 18481.894935 17774.493528 16945.581327 16426.469496 16266.597222 16148.351143 16013.947214 15788.390983 15550.895265 15392.967786 15231.996153 15016.747545 14756.547897 14338.218020 13828.873741 13531.412722 13425.900766 13222.297783 12851.838517 12503.003730 12270.088330 12000.390378 11818.063861 11802.304541 11732.291288 11374.937272 10874.839089 10512.346875 10248.964283 10041.595779 9900.590728 9891.524604 9992.202725 9965.702752 9702.430235 9324.262275 8927.047553 8539.836355 8291.957391 8083.824931 7912.939807 8014.197105 8134.324717 7795.590458 7275.954626 6887.102241 6591.366422 6441.125751 6411.764106 6250.666789 5726.411745 5003.727191 4380.787841 3838.970155 3284.532551 2778.125106 2375.633843 2222.972477 25794.974093 25696.201614 25493.353259 25291.914233 25049.254032 24645.013578 24057.727804 23436.139888 22878.606025 22367.012923 21997.889216 21862.110683 21781.544021 21651.639329 21526.671522 21313.812714 20979.260928 20582.822147 20147.229676 19730.543154 19402.212361 19096.280471 18779.240897 18449.412435 17963.299122 17351.453426 16804.160758 16417.052337 16179.682397 16015.334598 15886.845880 15734.228641 15518.871201 15270.677763 14992.132457 14707.505078 14430.716564 14120.615142 13837.547600 13606.271084 13328.471572 12989.033611 12646.601077 12343.396634 12085.365804 11869.833103 11727.798227 11626.695315 11432.996201 11133.169192 10835.310117 10585.561988 10366.132778 10193.765043 10112.657375 10079.830459 10002.014464 9815.351482 9521.341934 9181.600992 8846.913594 8560.163016 8329.078427 8126.796898 7972.648535 7848.108127 7636.599628 7315.774072 6983.799978 6704.711931 6486.191752 6304.635075 6087.692737 5744.251364 5256.107681 4701.818605 4154.555308 3630.542490 3137.881938 2700.316136 2372.832227 2266.502441 2150.526167 1968.364458 1695.493074 1493.359941 1363.426141 1260.205189 1155.627277 1076.464881 1017.263417 983.278846 977.116732 980.784472 988.154986 995.389779 1002.833842 1010.367552 1017.743366 1024.722341 1031.101635 1036.715925 1041.432204 1045.141199 1047.740237 1049.084083 1048.786870 1047.831865 2222.972477 2121.430802 1960.241115 1742.569443 1546.674551 1396.112640 1283.130001 1189.807762 1109.124159 1045.644627 1002.785998 984.101227 981.329756 985.861897 992.045793 998.923360 1006.129917 1013.360563 1020.360560 1026.919289 1032.865079 1038.059761 1042.393525 1045.780455 1048.155570 1049.481364 1049.815398 1049.743110 1049.882535 2266.502441 2210.237617 2109.686974 1947.275967 1748.879554 1561.428640 1408.100571 1290.213387 1195.405900 1115.656779 1052.934908 1010.985327 989.884402 984.490527 986.952086 992.422180 999.120216 1006.287734 1013.513883 1020.514513 1027.070614 1033.007993 1038.188134 1042.503132 1045.874613 1048.261802 1049.693148 1050.343544 1050.580571 1050.811498 1050.997726 1047.831865 1042.597519 1032.119809 1020.905092 1008.899934 995.948367 982.054859 967.261150 951.621364 935.193742 918.037796 900.213122 881.778763 862.792803 843.312049 823.391794 803.085625 782.445268 761.520477 740.358947 719.006251 697.505801 675.898826 654.224367 632.519277 610.818245 589.153816 567.556428 546.054454 524.674246 503.440194 482.374784 461.498664 440.830716 420.388133 400.186506 380.239912 360.561015 341.161168 322.050528 303.238178 284.732258 266.540100 248.668382 231.123286 213.910668 197.036235 180.505742 164.325189 148.501041 133.040448 117.951484 103.243395 88.926859 75.014252 61.519932 48.460522 35.855212 23.726060 12.098304 1.000678 -9.534272 -19.469866 -28.764970 -37.373686 -45.245030 -52.322642 -58.544482 -63.842562 -68.142676 -71.364167 -73.419705 -74.215103 -73.649153 -71.613512 -67.992614 -62.663634 -55.496495 -46.353931 -35.091607 -21.558296 -5.596129 12.959084 34.277450 58.534509 85.910641 116.590381 150.761609 188.614616 230.341048 276.132760 326.180706 380.674386 439.803496 503.767292 572.809812 647.342375 728.349008 819.179370 925.527845 989.481605 1049.882535 1047.217839 1041.021331 1031.586020 1020.797782 1008.899633 995.978322 982.092095 967.298738 951.657171 935.227115 918.068548 900.241221 881.804236 862.815701 843.332439 823.409752 803.101234 782.458618 761.531660 740.368058 719.013387 697.511060 675.902307 654.226168 632.519496 610.816978 589.151159 567.552474 546.049293 524.667968 503.432885 482.366527 461.489538 440.820798 420.377496 400.175218 380.228038 360.548614 341.148295 322.037232 303.224502 284.718238 266.525766 248.653758 231.108386 213.895499 197.020795 180.490020 164.309164 148.484682 133.023712 117.934318 103.225735 88.908626 74.995357 61.500271 48.439977 35.833653 23.703342 12.074267 0.975147 -9.561484 -19.498963 -28.796171 -37.407221 -45.281146 -52.361597 -58.586547 -63.888020 -68.191821 -71.417303 -73.477143 -74.277159 -73.716152 -71.685779 -68.070476 -62.747416 -55.586517 -46.450509 -35.195044 -21.668884 -5.714141 12.833394 34.143853 58.392806 85.760667 116.432009 150.594752 188.439220 230.157057 275.939976 325.978323 380.459452 439.565851 503.472987 572.346404 646.334257 725.527939 809.559785 895.370666 956.463438 980.299361 1050.997726 1049.942670 1046.497598 1039.937565 1031.123333 1020.607021 1008.807934 995.920105 982.046171 967.258480 951.620543 935.193490 918.037719 900.213098 881.778756 862.792801 843.312048 823.391794 803.085625 782.445268 761.520477 740.358947 719.006251 697.505801 675.898826 654.224367 632.519277 610.818245 589.153816 567.556428 546.054454 524.674246 503.440194 482.374784 461.498664 440.830716 420.388133 400.186506 380.239912 360.561015 341.161168 322.050528 303.238178 284.732258 266.540100 248.668382 231.123286 213.910668 197.036235 180.505742 164.325189 148.501041 133.040448 117.951484 103.243395 88.926859 75.014252 61.519932 48.460522 35.855212 23.726060 12.098304 1.000678 -9.534272 -19.469866 -28.764970 -37.373686 -45.245030 -52.322642 -58.544482 -63.842562 -68.142676 -71.364167 -73.419705 -74.215103 -73.649153 -71.613512 -67.992614 -62.663634 -55.496495 -46.353931 -35.091607 -21.558296 -5.596129 12.959083 34.277450 58.534507 85.910637 116.590370 150.761573 188.614497 230.340661 276.131498 326.176592 380.660973 439.759757 503.624654 572.344640 645.824597 723.409649 802.812171 877.649642 937.430940 967.562621 975.230635 989.481605 1072.159051 1223.556489 1370.676423 1517.754248 1668.227070 1822.663405 1980.890298 2142.440172 2306.679682 2472.836880 2639.997046 2807.089326 2972.873800 3135.937011 3294.706321 3447.496979 3592.608116 3728.480761 3853.913845 3968.284072 4071.584060 4163.806821 4252.098553 4349.721011 4482.503736 4829.808283 5150.509054 5653.785668 6991.215230 7812.182467 8430.696187 9562.247577 10677.807384 11407.166875 12339.276407 13205.463391 14865.566546 16434.669126 17558.114213 18635.471038 19734.070473 20852.418857 21727.219017 22318.205017 22781.258849 23409.759169 24329.032217 24987.687502 25386.864245 25891.415661 980.299361 1016.557490 1104.525499 1234.146002 1373.414295 1518.443863 1668.316877 1822.588158 1980.783909 2142.346956 2306.617095 2472.814683 2640.023183 2807.171612 2973.020121 3136.154778 3295.001400 3447.872526 3593.064999 3729.025316 3854.591445 3969.296541 4073.671994 4169.405638 4263.029843 4380.105047 4555.720906 4859.313322 5235.955547 5787.038373 6750.891000 7665.515674 8410.142791 9410.156254 10477.570862 11333.480666 12227.538947 13321.338250 14942.550864 16402.924302 17515.974297 18562.837222 19672.299896 20814.640670 21775.659126 22431.658607 22938.714274 23494.782301 24160.639312 24845.366379 25492.387353 25910.118160 26149.400501 975.230635 988.460804 1034.789752 1124.712758 1242.249399 1376.317755 1519.497108 1668.763666 1822.828712 1980.941223 2142.455861 2306.684519 2472.838378 2639.997532 2807.089557 2972.874131 3135.937951 3294.709310 3447.506600 3592.639139 3728.580900 3854.237460 3969.331089 4074.978124 4174.774654 4277.962830 4408.927595 4607.332620 4900.097217 5317.914073 5927.186126 6719.686581 7569.293892 8443.934284 9405.752775 10394.342283 11331.435352 12276.252453 13500.710724 14973.546547 16345.026707 17528.209040 18596.193433 19641.194907 20672.779160 21620.461466 22436.079950 23204.400058 23972.940156 24668.190260 25242.321494 25716.396498 26054.767708 26264.780654 26322.366267 7922.954794 8059.392012 10282.475251 11066.975097 12374.692069 12677.503174 12475.382737 18821.150523 15404.168047 10118.583424 19808.308101 20411.137467 21553.656280 22481.999145 22613.337043 21917.512460 23525.908358 24095.355011 24964.729602 25671.155915 10535.885268 16455.487198 9527.970779 17358.236629 12957.774143 12877.609873 14250.505771 18020.243310 18073.859647 19011.375335 19236.624603 22412.532462 23352.870229 23245.494296 23408.805973 21709.322011 24742.255451 23748.047135 25607.201176 25898.801192 13852.660537 16301.401686 11291.116556 19460.498450 13866.231095 16185.760776 16630.285183 22591.284470 20747.990838 20876.126274 21757.620846 22055.894510 21719.302047 22646.983840 23135.149277 22884.368063 23382.052940 24687.948865 25513.486111 24942.764943 19184.238833 20444.606621 13875.753793 17556.162425 17107.734660 22393.685606 14965.251524 20601.889886 21219.594072 22723.921961 22629.147711 25127.258264 23621.119054 22534.937005 22411.190027 25012.227470 24466.926772 22610.837685 24289.540188 24404.254721 20346.518120 22454.977617 14122.594530 16379.332969 22331.051235 19525.034174 14529.399699 21689.404360 20543.945423 15199.993691 22803.606756 21730.880648 22568.312005 22790.533148 22677.098310 24673.306831 22656.295718 23081.973225 23285.784604 24491.980840 11652.203273 18621.605065 13063.178266 12993.312368 15913.058249 17226.690298 19943.628038 23234.080626 19591.627176 20110.165484 21561.241399 25122.221590 18067.731909 19188.047756 22757.885695 23753.557882 22905.681035 23780.186303 23983.498586 24535.917159 19590.217087 15723.935268 18350.597350 18788.416225 13553.599761 22605.346385 22764.442496 22578.717056 21087.718519 16009.306502 22153.877897 21811.541407 23359.583709 23029.285084 22626.625608 21999.081134 23986.029469 26144.798132 25263.507535 24538.594606 16833.942536 13993.873495 15119.866345 16704.367167 17352.927140 14558.709119 16564.856489 20279.059041 21633.517471 17218.604752 22860.983334 19615.373554 22798.979963 22670.380800 22863.542016 24016.992698 22754.341960 25002.538230 24168.878940 25179.833623 14045.457414 12930.032951 14959.180249 11947.169179 17108.332309 13721.190065 18558.054727 14831.105718 14808.621365 16004.598100 16222.868958 18215.816503 20586.754603 22372.064032 21862.803399 19752.672079 22702.044243 19663.320084 25994.568067 25984.370641 13023.254736 15288.984757 19250.367727 13620.210930 15160.854881 17838.796422 13126.178933 13141.180138 16098.256159 21938.852761 19485.087601 18379.086437 20727.533740 21182.235575 19839.406700 20741.726989 24249.618369 25916.641299 20678.437151 25450.764332 17163.427378 17487.668252 13868.995779 15576.562163 17597.532486 19752.902019 15902.911817 16436.792427 18575.511352 18457.237518 16236.444999 22951.263247 19994.436193 25693.825453 20790.123217 24210.559327 20821.225376 23729.650562 25383.196181 25513.290377 11243.281637 11471.673104 14144.159840 16482.477614 14039.781416 15421.440354 14421.810380 12409.917828 14154.510157 23147.512091 19854.743970 15418.946638 19934.005896 18089.888276 18632.352740 23187.510408 22769.035356 20902.306925 23363.504470 24405.985727 13646.575850 12484.786881 13772.000972 15204.151182 16207.571673 13361.864837 14137.250385 16904.202409 14743.679834 15651.608718 13642.401292 20716.757786 15117.913411 20924.734362 20491.992682 19937.122563 23139.225777 23242.078465 24811.067282 24657.555738 10776.438468 11612.338598 15000.776515 11950.011412 14318.281751 15821.533008 14685.945335 15916.068811 13155.249704 18752.279284 17167.631208 18522.358298 23924.942252 20977.199156 21014.897933 22052.715667 24734.999097 22547.040607 23330.049042 25372.438762 15164.111948 10777.918472 11826.585222 12515.756041 14518.409326 17735.280046 12952.343029 18431.378349 18335.554320 16140.947196 19925.506372 17013.866493 20703.648126 23323.854383 23382.501151 16176.566129 19187.840579 26370.097213 23162.475849 25719.420669 11988.396006 11272.655321 10975.997195 11389.560286 16423.700180 18433.991051 13464.337725 12227.830630 17195.251530 12940.071985 16140.554611 15180.010315 22998.384943 21738.621541 23279.371441 22728.012929 19931.532973 25120.288025 21972.108109 25874.385669 15897.664777 11715.744829 11442.635117 11447.167193 14029.849394 13365.287907 13490.397885 16229.125146 17171.839492 14052.684116 13657.702257 20915.574757 18769.450913 23438.883114 17697.646524 23471.602669 18668.963969 21929.165437 26535.998262 26444.759444 11208.466109 10547.783400 11010.396590 11100.447116 11465.344914 11883.185586 13838.401565 12214.534152 14308.236495 13812.904747 20928.431406 15356.512176 15323.532113 14770.961682 22027.933259 19381.032154 21826.463577 23279.726849 24802.874594 25920.099224 9551.172578 11555.091300 11229.183573 11595.996656 10908.320668 11754.116886 12536.039234 13008.030288 19494.997035 21053.821940 18566.561230 19664.749342 24741.688139 18468.608631 23208.524651 24507.096256 24767.942247 23717.625611 21872.295383 24053.406052 10967.920705 10575.455136 11007.928390 11254.268379 12040.898647 11388.977433 11599.026859 17313.630105 14089.329364 14934.152049 18056.320125 17285.497942 25228.438606 21938.484231 24813.068909 23628.975732 24294.205295 25828.617787 26403.071150 22840.426339 9199.946209 11549.832535 10836.651652 11513.261483 11088.898646 12464.476173 12737.986386 14000.927865 15132.588739 18489.650896 16210.164970 16039.435319 17253.978535 24453.444219 16694.824678 19640.259281 22124.643065 23189.098396 24296.447293 25771.831475 8083.468949 11989.786909 10964.685887 11252.692606 13928.972407 12542.988780 13036.922029 15911.202853 12954.401240 13597.370553 22034.214533 23811.956191 22266.892633 22182.447424 23232.239588 17051.349970 21883.319468 20798.625406 25002.745922 25456.656474 13434.600000 11338.447028 13737.255841 11604.261294 12254.933978 11742.945156 14433.436736 13097.097558 17471.680700 17119.777585 16272.539214 22136.384435 18071.309863 23479.381254 15002.743624 23877.939399 25678.802796 23371.116581 25768.873207 24576.574389 10901.478890 11621.865419 11458.596281 11501.635274 12553.042782 11826.163011 16565.850576 14382.743031 13109.087846 17997.022759 20706.629666 19403.031980 20813.582468 23096.489160 25073.418966 25253.710304 25858.635098 24591.221367 25798.401265 26077.167223 14664.214091 12472.983182 11392.988234 11538.638173 15175.828411 11838.609258 12521.837413 16428.412079 12477.336326 14109.458019 15148.499046 20709.732321 15527.423188 16140.374303 22413.553097 23495.774631 23971.347810 24409.585329 24486.598866 24752.365169 12135.710488 11109.804770 12355.143207 10848.385925 12286.688136 11764.005809 11894.941128 13300.039660 14398.934746 17114.409681 16485.796683 17706.162791 21682.793344 20632.417546 15830.271922 22486.791602 22515.390658 23332.643813 24618.530311 26076.164947 5682.121553 11494.318884 13447.359859 11961.673274 14703.717892 14969.860035 12173.438428 12564.568388 13511.150839 17025.246296 15353.298408 17442.206165 17690.627382 19567.028492 23431.777766 22961.496814 24010.136786 25963.532412 24606.284890 11241.460275 10982.352916 11289.694151 11270.205779 12566.719248 12897.852145 12395.814174 14741.807882 18815.297251 15280.802492 16131.026577 19279.555507 22737.028199 16683.117090 21579.538186 23894.560828 23547.095049 22076.422296 23921.212347 10383.011958 11498.165962 12227.843695 11205.571985 13080.715086 13754.350909 11968.665114 12883.421973 15538.558560 17887.073096 19204.381292 16965.724103 21674.659900 14720.794733 22891.557190 23748.572898 23141.642651 23359.758531 23393.170793 10649.105625 10914.443106 11725.246217 11238.849917 12957.489456 12213.716370 15156.964151 16867.541484 16957.172584 17854.745347 16586.766564 15941.043208 18333.536169 19193.936178 20609.396149 19703.733009 21612.916443 22011.593948 23252.700905 10606.910052 11082.967554 12761.555081 12056.643551 11452.623483 11201.843005 13736.556808 14175.903600 12204.798768 13358.676707 16984.499992 12609.094600 19387.535391 18126.160202 17548.804532 21370.984507 22340.101666 22987.247031 10297.089873 10924.744679 11413.204515 11688.343632 12899.444434 12255.094407 13914.033237 12842.178413 17541.814984 15997.137568 14737.581005 20314.779793 18460.527476 21338.364217 22930.399148 22456.774621 21765.607986 22428.644258 10146.690244 11090.734915 10488.640182 13674.133889 11669.394440 15516.702319 11760.816473 14522.222821 13513.327610 17273.647975 18615.337515 20591.549312 18169.094520 22075.347000 17349.829058 22550.249608 23814.580502 10648.708697 11127.838900 11511.065261 11779.098637 11654.551506 12603.390892 18833.667654 11940.180668 12223.622812 17783.880197 15525.092917 20694.970118 23516.504246 21101.427570 18645.492194 21926.075780 21854.701920 10555.803649 10869.273824 12061.735560 10338.923403 18801.426842 21053.563937 15495.693575 15113.598427 14530.513919 22176.940741 15186.942003 21883.481144 21750.999876 22844.955066 21041.787969 20633.513168 21309.567587 21309.128073 10965.446736 11219.400577 18750.378240 11636.855304 11559.501503 11434.533842 12679.263858 16067.108511 20258.131490 19512.283113 21400.985654 18880.237304 21977.587705 21437.198251 21251.217241 20987.704532 12047.502172 10724.735007 13682.470354 11962.422235 11430.108232 17404.623772 13942.516646 18108.361592 18917.462673 12920.206288 19697.077198 21495.996339 21221.002934 20532.128906 15568.848103 20338.128752 11124.101013 10970.542497 11552.520344 13566.981048 21758.925304 18744.010331 18689.711065 16486.685144 18564.981111 13810.018076 16872.188312 21368.258756 19868.096754 21570.559514 21563.573197 20445.160132 12208.874548 11443.262285 11276.753417 16677.479972 12131.005393 12109.890939 19614.972363 11878.928770 13028.304206 19435.143363 18860.434460 21926.729185 21688.004497 21585.203428 20429.507453 9665.503486 11979.755381 11240.061020 11574.448595 14635.930632 11580.415410 14314.087988 16684.859511 21158.039104 21223.147016 19666.536777 21563.333152 19698.865670 17383.660912 20280.925913 10911.470582 9785.724914 11622.196869 11796.453941 13836.194660 14982.867646 10610.183064 17006.684923 21422.159746 14266.387961 21424.980768 15315.355377 21292.816326 20591.551673 19945.225000 10719.747733 10984.175669 10891.230489 11188.146580 14182.239016 12912.872449 13381.895827 16047.147523 14119.683762 14562.225593 21098.751810 22004.871552 20087.615043 19443.244672 12189.499889 10911.896814 11872.948922 18295.947878 17948.544208 12813.480417 11437.840123 16233.872911 17992.258221 20963.810946 19688.923791 16657.363196 20377.482964 19157.711853 10399.051401 7064.329262 11681.809426 12249.836238 18856.534676 11265.808830 19638.165201 17349.980566 12662.433365 13366.025795 19867.074427 20268.239531 15748.303710 18561.940715 6714.221777 15949.187830 11524.291693 14854.057238 18005.423095 15640.240063 21419.569865 16031.813887 19607.045942 18024.971983 20807.993988 18497.771207 18219.537754 16009.027936 11759.797061 12048.640276 16709.091292 10620.517751 18443.883907 11453.688511 18576.218680 18716.814085 21624.826577 19959.316482 20350.413963 18035.365406 11730.522142 13694.898301 20366.764960 13575.005914 16240.005971 19031.063595 17422.090298 11558.491057 19838.948741 18807.590120 19847.170767 17114.454408 17751.746364 12902.083930 10976.760460 11019.855754 15605.259898 10748.246801 16584.053347 12274.542413 17006.055558 18872.033972 16462.876916 16037.453248 16301.357594 10664.610615 10666.912099 12197.197114 9942.633142 10810.035892 12980.726967 15223.956218 20762.338263 14585.719715 18836.834481 17293.622056 16225.503335 11060.999873 10571.900451 10574.422013 19843.585835 11256.369421 17691.342611 19608.418670 14570.888783 18863.671339 19511.077322 18092.484470 16223.924669 16224.561473 6161.730573 15603.979151 15087.273370 16925.353960 14377.931342 12031.809060 14813.810098 21663.546936 18852.341390 16891.322902 19572.909158 14157.515663 8324.574384 10631.501322 13514.705547 19369.533418 17624.346219 15917.042510 9718.092486 21565.758030 13233.442086 15767.965428 8880.271155 12046.448522 10485.425827 11614.068730 8415.616037 17578.376573 16026.076914 19767.673065 15409.736384 17988.535857 15482.464551 10430.076235 16116.705199 11126.701235 13630.147813 13873.643171 11738.735861 14455.631725 17249.329178 15582.976641 15301.549267 12845.884299 13063.055864 10778.660910 16536.092574 15846.658279 15816.975141 16074.026845 20627.128207 20755.254213 17225.250410 1060.626697 8809.854549 6079.364786 14918.081440 13527.683850 16699.562698 13660.961165 20786.391220 17652.089948 14869.133477 4315.381294 13717.460796 14399.166282 13031.709843 17333.958353 15222.007055 17338.255026 17436.049024 14531.713519 9971.646334 9057.587567 13842.208880 11835.937525 13314.080092 17936.062945 15574.930195 12312.618698 14552.205508 10408.855262 9639.208685 13678.533723 15310.523483 19925.092163 16328.988177 19811.710604 19082.572032 14037.261200 9939.891071 13368.694226 12636.911025 14168.665853 13824.592592 13910.403654 15214.283267 20711.735409 7014.372369 8217.089338 8653.416609 13010.663347 17926.097632 13935.109985 11897.227880 14896.139531 4083.087361 13298.908255 13755.607256 13872.726155 12787.245151 12634.146662 17906.851418 13503.855847 7813.624741 6143.533120 12259.274750 15112.485387 15498.156721 16885.748051 12135.070469 9125.962808 12346.545403 10751.124857 10410.262587 17060.885601 13674.617307 12471.207975 11072.619934 9051.542358 15329.661837 7313.224444 14670.374509 15048.735242 12450.609025 12445.694972 6364.425453 13216.371677 15281.895277 11409.239349 11910.163401 16400.737276 986.008274 11720.132063 14238.955692 16212.671646 12638.930369 17342.391530 9438.682283 14910.427020 11655.583379 13250.049952 11849.320326 11873.467720 1358.278164 13497.474518 13031.970241 15966.848255 11550.141529 9053.212535 14306.554442 14274.613143 12970.306656 15910.277017 7333.432856 10824.048866 10393.394215 7349.740059 10708.599098 9524.631101 8454.384336 10343.250286 12542.438084 10804.275001 7068.350083 9872.453776 12298.552145 1471.643310 10279.393023 8179.111009 9941.445248 11303.182451 12041.609547 13546.757275 9782.103489 11554.535345 7516.529570 10367.893451 8867.995841 11168.384093 10241.945534 9258.517959 14760.520280 7399.846038 8571.625771 12053.436474 8860.219583 13238.549779 8235.130463 7910.197457 9100.302980 11902.415671 10805.159357 10912.596753 10132.682469 10090.146909 10493.252134 11044.571917 10343.933665 12399.335381 4445.936959 11578.356574 5185.472188 5292.839237 11096.846466 10018.419495 11827.561407 10451.780561 10800.958410 11977.815755 11426.810844 11893.188036 13070.105247 10489.082272 17877.056363 14264.341829 11336.270664 10729.660384 11644.192114 11771.465247 12637.887623 9554.213771 11145.143035 13004.186070 16169.020472 11583.187390 18009.309269 18028.610724 12545.878185 11303.533729 10790.357119 10284.589083 12234.066896 11635.732463 10942.819036 10528.351642 10028.298365 10183.846517 10556.089327 11534.410354 15154.222962 10510.810617 11104.323720 17335.695474 17666.927043 14266.154412 11156.184998 10055.953311 13325.796010 15204.359434 9991.038275 10660.110643 13042.406690 11022.154416 11220.801050 11960.593138 12739.827355 15936.134579 14830.389148 11050.425980 11415.652414 11132.882758 15425.805413 12260.282299 21505.502974 10800.125001 11568.341148 10338.947232 11829.329011 10685.564117 10292.938575 12783.834936 11556.700756 14096.843061 12247.171655 11989.619499 12085.070976 14365.633051 14139.522055 10971.160183 10499.950313 11289.013967 11236.802320 11054.098377 10872.002433 11150.216591 10599.277749 13628.355511 12286.583810 13272.208639 12743.393456 12504.397570 12317.514061 13653.106255 17136.555937 8707.563832 10759.595567 10714.034052 12798.801097 12098.599073 11693.520286 12211.665513 12308.257945 14576.461827 11777.193316 11237.690455 11342.778702 12592.038521 12606.605415 16792.330642 10873.355639 10966.814505 10754.650323 11544.111117 10901.806764 11697.519843 13167.454479 11201.735676 12248.015234 15222.853110 11984.797172 12751.022802 13045.784946 12844.784958 12753.927245 10747.602580 10862.821504 11183.447856 10824.206316 12043.408718 13448.899692 11871.624809 12584.486680 10863.774868 11391.705479 13172.098967 13766.331214 14440.999217 17365.706524 15501.982775 11116.682936 11022.760717 10718.007789 10972.663204 10962.711249 10908.645616 10877.703680 11950.540727 14963.418436 14900.512854 12442.699002 11558.247703 12156.412974 11711.237358 15747.182863 10270.389534 11056.694186 11668.601020 11217.983866 10724.325717 12353.104289 11606.494336 14113.254501 10899.602705 10853.604067 11361.973906 13110.545514 13981.971452 11505.338150 12732.052632 10904.414034 10641.850663 10594.083545 11151.511125 11066.709308 10665.907882 10976.471916 11864.394332 10725.484149 10570.075764 10953.028165 13390.755808 11222.213878 10873.555239 11876.180498 11043.891614 10398.803969 10677.163943 10791.995940 10675.743366 11469.966642 12240.605713 10923.837436 11533.045780 3303.630383 10437.031603 11471.725094 11204.465226 12235.270186 10998.172157
</DataArray>
<DataArray type="Float64" Name="Velocity" NumberOfComponents="3" format="ascii">