<VTKFile type="PolyData">
<PolyData>
<Piece NumberOfPoints="2186" NumberOfVerts="2186" NumberOfLines="0" NumberOfStrips="0" NumberOfPolys="0">
<PointData>
<DataArray type="Float64" Name="Pressure" format="ascii">
 27325.787545 27615.137957 27616.291973 27403.833290 27144.087345 27039.516655 27256.888007 27750.553086 28035.115997 27970.726115 27733.021331 27609.552249 27708.474697 27603.404813 27450.003140 27641.809268 27927.456814 28273.489960 28435.508629 28342.281203 27956.778491 27253.195578 26445.570543 26319.029996 25990.773049 25893.647629 27450.334855 27443.295234 27523.327561 27779.764401 27904.571029 27778.164918 27589.071920 27646.781212 27950.488396 28279.321496 28602.534233 28774.048946 28615.394557 28244.602720 27913.081581 27666.020976 27597.715358 27965.762431 28592.705206 28947.784256 29018.455309 28856.460231 28243.366631 27335.932727 26561.546425 26036.968097 25634.792987 25489.934055 27377.270443 27444.182224 27562.485934 27669.014926 27784.743601 27800.976349 27675.336606 27583.180475 27678.991438 27886.295743 28046.881244 28146.998807 28244.119157 28323.428743 28358.733856 28427.068847 28513.067429 28542.421170 28590.559580 28528.908705 28258.382583 28079.539385 28016.586511 27701.034505 27141.734300 26537.381056 25918.430440 25365.821365 25153.614755 25893.647629 26091.148642 25936.433908 25627.790295 25252.281405 24926.178408 24582.438606 24150.245783 23944.648229 23980.269759 23329.740585 22700.821627 21831.796236 20804.188317 20098.848448 19850.874196 19691.918230 19532.871689 19736.980799 19717.107791 18891.457493 17842.881362 17027.440308 16598.490179 16158.177778 15601.385497 14721.052904 14631.015152 14948.133970 14582.392561 14168.050603 14311.912574 14592.514472 14311.978463 13513.666671 12717.103972 12479.323025 12261.731519 12064.484534 11857.013528 11655.594201 11406.174382 10927.509779 10709.930296 10436.165474 10284.342660 10146.620670 10020.936837 9790.850991 9601.831595 9746.161009 9705.156832 9389.403175 9261.438061 9522.085551 9954.553743 9716.525160 9099.475001 8321.554211 7954.801346 7944.246627 7801.944333 7634.796407 7683.278259 7504.536529 7617.188062 7398.627165 7618.421977 8231.030510 8812.323394 8635.722426 8874.198436 8612.967980 8823.176565 8995.253888 7796.051747 7262.211221 6189.833088 5243.272419 4662.881143 4584.503363 25489.934055 25715.669742 25921.280086 25544.978079 25021.438497 24773.080242 24532.816632 24179.096156 23911.566148 23688.114448 23181.228667 22719.277412 22178.237818 21327.244514 20532.456938 20123.638869 19867.756981 19514.363263 19440.825708 19495.996531 19243.374765 18605.957466 17734.632560 16857.271569 16218.540137 15627.774673 15016.647238 14996.581100 15227.595341 15105.043875 14710.262283 14406.406891 14410.506420 14233.230765 13699.342171 13144.487654 12831.785817 12640.603579 12343.591859 11995.462869 11732.970335 11435.000605 11056.660947 10788.906004 10584.961081 10407.389978 10246.024741 10053.293504 9838.016581 9679.696001 9592.106834 9497.858788 9378.120995 9366.595166 9545.028667 9677.033608 9427.278112 8873.029849 8404.810603 8254.554304 8231.838920 8094.422917 7949.352850 7893.964289 7794.106727 7626.741829 7503.415087 7549.399781 7908.013544 8433.999130 8332.818680 7822.921717 7667.420113 7647.330439 7314.677847 6825.271779 6228.273672 5529.607675 4962.224843 4621.887078 4444.578573 25153.614755 25278.357454 25575.336453 25488.012815 25138.379214 24844.767983 24545.071739 24218.268645 23967.658819 23682.072737 23239.292580 22707.401571 22164.712704 21555.332919 20956.112979 20563.447307 20288.097647 19942.842343 19590.668440 19292.655131 18923.632646 18442.352335 17943.650719 17424.895303 16870.909770 16251.558218 15662.245037 15295.251298 15148.299906 15034.211714 14823.864363 14600.843439 14445.233654 14251.709402 13927.268638 13546.092733 13197.268985 12906.748250 12592.385023 12218.304268 11872.724917 11547.712470 11223.486557 10954.588184 10740.149973 10536.050030 10343.741845 10177.801075 10024.712897 9872.727447 9718.065163 9572.781592 9459.541894 9396.730484 9398.162853 9412.067066 9316.828585 9041.756764 8695.838845 8455.607753 8346.067544 8267.638874 8174.801392 8087.287060 7997.474439 7869.072667 7721.264259 7615.120295 7622.442069 7732.398773 7765.173282 7562.675038 7249.922313 7001.474364 6764.489064 6463.531987 6082.338769 5625.324810 5150.883338 4737.979555 4432.982069 4328.060020 4584.503363 4216.328664 3527.529171 2885.330648 2440.014159 2117.733451 1842.930108 1661.873039 1539.595696 1469.771292 1452.949837 1449.580480 1448.779403 1446.874799 1443.989238 1439.837849 1434.205155 1427.067168 1418.550283 1408.850432 1398.151888 1386.552880 1373.968396 1359.819019 1342.895909 1332.354146 4444.578573 4484.023771 4232.050228 3620.338063 2981.675751 2501.724959 2166.475413 1916.853786 1728.357642 1595.190490 1509.537890 1469.227110 1454.975924 1450.789700 1448.328958 1445.791431 1442.433478 1437.834657 1431.834429 1424.463533 1415.867821 1406.233851 1395.728180 1384.457876 1372.460118 1359.764762 1346.895222 1337.949995 1334.426305 4328.060020 4358.990874 4347.494514 4084.543194 3554.608940 2980.695246 2513.474626 2174.365424 1926.078282 1740.729466 1608.438889 1523.658563 1478.473495 1459.441467 1452.180682 1448.663542 1445.816765 1442.343954 1437.679341 1431.624741 1424.202324 1415.557076 1405.878376 1395.344206 1384.102329 1372.319959 1360.381365 1349.279027 1340.690379 1336.557164 1335.512353 1332.354146 1317.242557 1289.348090 1261.892765 1234.077637 1205.234409 1175.229989 1144.076630 1111.846001 1078.639538 1044.576561 1009.787857 974.411230 938.587983 902.460007 866.167372 829.846355 793.627843 757.636081 721.987694 686.790971 652.145352 618.141099 584.859115 552.370893 520.738584 490.015141 460.244558 431.462162 403.694967 376.962068 351.275074 326.638564 303.050567 280.503054 258.982432 238.470049 218.942685 200.373043 182.730224 165.980186 150.086187 135.009206 120.708340 107.141175 94.264139 82.032816 70.402242 59.327170 48.762307 38.662524 28.983033 19.679552 10.708421 2.026717 -6.407676 -14.636010 -22.698637 -30.635006 -38.483665 -46.282291 -54.067736 -61.876083 -69.742723 -77.702430 -85.789461 -94.037645 -102.480489 -111.151276 -120.083160 -129.309262 -138.862746 -148.776892 -159.085142 -169.821129 -181.018680 -192.711776 -204.934480 -217.720805 -231.104520 -245.118881 -259.796251 -275.167614 -291.261928 -308.105298 -325.719932 -344.122826 -363.324144 -383.325228 -404.116192 -425.673063 -447.954424 -470.897633 -494.414871 -518.390021 -542.679640 -567.129059 -591.637083 -616.486560 -641.889022 -655.535202 1334.426305 1327.750257 1311.492980 1287.476154 1261.429578 1233.980454 1205.244662 1175.270150 1144.122809 1111.890395 1078.679366 1044.610696 1009.815792 974.432748 938.603034 902.468664 866.169801 829.842797 793.618596 757.621486 721.968126 686.766830 652.117054 618.109067 584.823775 552.332671 520.697896 489.972398 460.200154 431.416477 403.648363 376.914889 351.227641 326.591180 303.003510 280.456580 258.936775 238.425419 218.899271 200.331012 182.689721 165.941338 150.049100 134.973968 120.675021 107.109830 94.234808 82.005526 70.377007 59.303994 48.741183 38.643437 28.965962 19.664467 10.695292 2.015506 -6.417008 -14.643502 -22.704332 -30.638944 -38.485884 -46.282829 -54.066628 -61.873361 -69.738413 -77.696557 -85.782042 -94.028696 -102.470019 -111.139289 -120.069659 -129.294242 -138.846202 -148.758815 -159.065522 -169.799957 -180.995946 -192.687475 -204.908613 -217.693380 -231.075560 -245.088421 -259.764353 -275.134367 -291.227457 -308.069777 -325.683593 -344.085976 -363.287178 -383.288646 -404.080615 -425.639223 -447.923101 -470.869381 -494.389080 -518.361821 -542.629791 -566.990179 -591.181124 -614.795208 -636.891367 -651.952459 -658.319083 1335.512353 1333.092236 1324.522385 1307.868295 1286.017260 1260.894535 1233.771201 1205.140698 1175.201320 1144.067862 1111.843319 1078.638718 1044.576310 1009.787780 974.411207 938.587976 902.460005 866.167371 829.846354 793.627843 757.636081 721.987694 686.790971 652.145352 618.141099 584.859115 552.370893 520.738584 490.015141 460.244558 431.462162 403.694967 376.962068 351.275074 326.638564 303.050567 280.503054 258.982432 238.470049 218.942685 200.373043 182.730224 165.980186 150.086187 135.009206 120.708340 107.141175 94.264139 82.032816 70.402242 59.327170 48.762307 38.662524 28.983033 19.679552 10.708421 2.026717 -6.407676 -14.636010 -22.698637 -30.635006 -38.483665 -46.282291 -54.067736 -61.876083 -69.742723 -77.702430 -85.789461 -94.037645 -102.480489 -111.151276 -120.083160 -129.309262 -138.862746 -148.776892 -159.085142 -169.821129 -181.018680 -192.711776 -204.934480 -217.720805 -231.104520 -245.118881 -259.796251 -275.167614 -291.261928 -308.105298 -325.719931 -344.122823 -363.324136 -383.325203 -404.116112 -425.672804 -447.953592 -470.894959 -494.406281 -518.362426 -542.591023 -566.844408 -590.726343 -613.500896 -633.685513 -649.249382 -657.402004 -659.804743 -655.535202 -663.143283 -673.444750 -678.219866 -677.055635 -668.889776 -652.224339 -625.336265 -586.326922 -533.140126 -463.578692 -375.333357 -266.033351 -133.325664 25.014429 210.948766 426.042368 671.380757 947.620035 1255.276953 1595.368373 1970.471091 2386.144701 2860.382079 3414.081850 3947.968511 4849.034900 5764.707384 6436.853003 7665.753046 8931.365778 9923.187016 11113.618498 11901.164021 12970.008894 15344.757210 16365.392370 16514.595284 16970.257265 17646.798747 18688.471172 20059.336332 21235.103875 22352.126600 23578.905691 24923.886920 26129.460082 26592.271188 27021.120294 27279.845895 27325.787545 -658.319083 -660.910127 -667.414250 -674.890210 -678.826791 -677.478029 -669.308536 -652.699137 -625.890210 -586.971704 -533.883294 -464.425321 -376.285728 -267.089803 -134.479133 23.777636 209.649136 424.705047 670.029541 946.265744 1253.897919 1593.876472 1968.623030 2383.248570 2845.678775 3372.107736 3981.589546 4735.706722 5558.413819 6362.257237 7353.234254 8545.348996 9724.216223 10887.347255 11970.393542 13080.240570 14391.944067 15729.908923 16768.177667 17298.634754 17870.118123 18798.327030 19976.303286 21152.634218 22216.005940 23327.313229 24611.535915 25813.151805 26575.799415 26945.245799 27114.392097 27319.112918 27450.334855 -659.804743 -660.569968 -663.786000 -669.773246 -675.684154 -678.918155 -677.275723 -668.958987 -652.246098 -625.343102 -586.329069 -533.140800 -463.578902 -375.333417 -266.033356 -133.325629 25.014529 210.949000 426.042815 671.381243 947.618662 1255.263504 1595.297664 1970.158322 2384.938481 2848.634058 3376.816167 3993.830670 4713.422312 5513.233851 6390.589086 7376.155494 8460.794978 9603.839690 10754.609922 11885.878336 13043.822324 14290.499041 15534.622328 16509.251847 17234.139723 17981.331966 18912.254732 19996.004478 21116.066843 22200.620203 23276.127107 24377.851351 25397.549288 26163.889328 26646.248984 27016.665317 27294.357687 27389.625435 27377.270443 9313.145055 9674.792900 9716.898777 10024.322121 13454.368401 14999.566688 15905.235957 18373.352402 16315.304147 10705.471398 20289.422445 20893.221711 22225.835180 24005.010256 24253.087972 23260.310083 25440.535781 25866.064389 26615.806918 27198.739473 10729.755638 14811.315424 8926.181610 17109.615726 12846.100094 13403.082321 13290.535809 17028.872579 18598.134824 19252.580084 19794.489872 23263.345941 24602.813747 25194.986661 24536.890070 22297.499882 26366.665455 25547.269106 26966.834546 26979.425676 14880.967266 15815.186540 11416.922700 20127.324988 13874.920389 17096.913028 18439.864934 25928.082777 20336.613252 21356.584255 22710.380224 23140.813323 21566.156926 24904.280998 25626.612100 26176.366507 25880.354545 25177.451058 27150.722732 25957.817816 19553.957800 21453.851054 16432.733541 18131.861439 18269.138907 23843.038067 15766.539920 21907.168598 21819.744152 24390.779470 24499.029029 26988.021106 24833.726952 25860.263713 23574.220499 25827.524577 26727.037197 26174.927514 26911.118790 26659.154901 20718.005413 23936.026964 12176.200238 16729.319019 23206.717981 19077.511538 15869.709105 22437.549173 21227.284492 14856.915547 25730.527509 21995.680536 22986.389588 26001.912756 24719.776258 25215.747972 24855.619982 26548.391783 26620.279356 26770.680895 10904.006729 18517.495830 13975.728825 14203.208889 15452.774121 16686.130847 19954.754423 25961.343955 18223.571233 19365.901236 22693.697266 26185.249963 18353.708519 19607.510873 24792.710973 25665.378771 24992.091519 26735.408348 26824.329981 27197.847947 20577.604558 16961.130894 18603.213624 17839.573997 13677.550598 23024.850227 24197.758644 22991.364097 22214.444883 18061.626617 23444.354611 23842.288483 26730.028273 26058.402562 23138.456540 23933.012183 25654.569239 25346.971301 27501.708043 27347.905747 19862.281205 14761.145554 17348.896946 18969.084352 18424.063782 16188.714345 15250.617410 20298.874142 21536.514377 18697.092209 25107.435335 21627.571799 24978.127614 24800.882173 24872.265449 25353.112862 24559.589269 26406.778693 26917.024127 27340.187140 14444.687070 13119.260707 16639.314780 11642.887361 18797.208803 15274.163417 18868.064208 15790.023059 15651.321739 17607.201445 16534.519056 19548.935410 20906.742362 23631.098140 23512.634622 21111.175307 25354.236846 21245.767357 26782.295545 26692.861380 12661.152078 17003.900107 21323.504388 14803.784210 16402.536441 20146.680861 15013.423934 16017.533435 16426.878503 23941.191267 21624.970213 20376.352154 21985.761368 21211.914426 21182.609937 22727.565849 26977.579381 25565.313775 22373.378217 26681.749702 18064.620433 21345.144017 14655.317885 17001.238111 21247.493144 21609.824077 17732.997000 18048.190395 19525.525197 20583.802246 18220.951162 24538.926986 19982.884566 25336.986326 23571.469449 25394.701568 22489.675339 26053.440209 27013.965591 25589.003321 10179.188457 11009.736403 14262.310216 19057.354144 14643.180274 16619.836146 16335.031299 13204.037013 17705.485148 25008.029484 21631.456023 19318.459193 22884.622853 19957.261788 20011.496595 27941.101448 24870.215737 22970.893826 26683.710985 27634.990049 12160.786265 12130.379663 13243.958649 15872.707671 16066.781754 13125.373008 16661.645523 20070.542554 17859.193204 17493.656348 14375.370864 22014.584995 17769.851484 23005.378995 22287.582491 22510.845991 25796.078059 25895.410807 28163.985942 27919.319225 8670.256924 10578.245428 16790.986998 11405.198951 15884.557373 18100.312915 16066.588595 17945.236051 14694.142550 20512.617882 19489.177177 21327.671764 25272.938065 22184.991821 24078.525779 23413.322206 27818.912825 27809.881709 28316.453910 27696.152742 9762.577511 9475.632847 11498.761343 12953.171692 14004.762732 19645.320287 14467.504434 19374.767991 19583.020045 15641.445960 22897.606431 18590.994983 24190.077075 24790.924039 24917.163330 19385.561158 20761.193486 27481.661543 26136.485822 27528.127890 10145.813396 8501.719030 8438.224329 10133.934663 16140.474021 20944.900444 14950.043113 12288.428792 20240.045275 13318.947435 18819.524513 16864.496080 24571.184689 23517.389065 25280.711796 24667.449901 21572.857594 24727.148683 24137.584101 27444.867339 10862.753263 10619.403658 8807.435221 10658.780761 14246.999671 12076.107362 14668.835582 18693.043151 18517.686901 16011.570950 13971.112895 23710.717191 21863.281879 24826.651691 19962.587548 25118.577601 20798.160582 25099.073673 26963.986172 27205.103415 7472.677138 7925.440125 8701.169696 9388.176876 10040.391786 11998.971726 13573.851318 12629.650844 15433.607470 14863.117776 23108.055340 17816.517153 18369.535292 17596.540466 23472.847602 21891.432684 23463.447837 26857.868454 25148.898266 26903.381092 7487.076954 8692.731690 8924.546021 10874.700780 9719.141813 10046.138497 12886.816281 11787.348693 20348.242063 22610.274687 21422.064118 20850.902495 26412.865963 22621.965677 24799.607250 25674.765063 26519.909346 25736.324782 24134.948596 25634.182796 8509.176874 7708.405903 8520.198299 10274.170883 11396.805984 10926.331154 9489.112184 17416.987915 14894.320623 16015.894587 21007.372158 19534.809099 26477.977468 25641.671051 26069.057562 24422.449166 26661.117553 26871.349049 27141.396900 26850.273257 7308.096681 7115.934392 9872.844103 9349.482567 10244.870825 12796.909193 12637.103581 15661.855550 15976.546079 19202.756526 19102.146659 18130.280391 19583.646567 26247.383298 19627.673304 21224.587282 25231.624014 25303.609545 25605.995798 26422.508651 4651.381251 8671.932529 8312.652366 9684.934055 12814.852959 10975.185416 13927.635094 15226.428504 14452.509884 13916.880891 22041.257595 23707.804193 22722.854855 24042.974281 25795.060445 19938.274675 23542.082138 22494.941533 26374.736672 26429.189004 10523.352525 8875.527084 11114.904637 9313.615482 10923.079930 9866.700372 13594.516604 13892.826663 17532.962138 18693.651102 17839.779848 24205.213063 20637.426267 24378.003888 18204.831736 25282.915404 24820.556440 25583.836758 25901.004761 26479.590426 6908.378284 9088.932310 9006.225791 9840.805990 11193.887159 9955.985026 17315.626711 14154.271923 11310.679911 19750.686044 23149.720840 22336.806757 23006.299342 24553.215819 26012.808752 26460.652366 25879.411199 25307.835174 25378.196445 26014.541729 10034.448817 11591.623687 8629.963777 9535.657926 15738.848917 9794.435130 11141.744982 15495.436412 12059.564587 15282.497234 15406.698551 21617.186634 17120.061613 17009.004193 24556.909872 23474.651305 24825.240440 25559.905921 25155.412932 25702.678248 10464.444192 8564.509325 10552.972426 8728.353007 12767.236940 10206.472516 10451.327284 11664.817010 13232.429419 16792.350975 15057.618097 17272.485459 21875.960643 22214.297001 17460.278186 23696.328844 24899.025381 24838.650301 26176.694838 25946.246613 7622.359948 8085.775707 8984.342641 10196.633587 13729.178811 12484.367297 10619.536773 12200.325481 14069.816103 20747.666064 14034.484695 18753.711916 15417.817060 22074.335133 22767.330613 24156.971664 24975.813257 25110.046306 25653.264944 8018.010245 8486.977522 8955.495998 8350.151984 10558.667755 11826.521598 9737.555465 13512.076965 18557.080445 15034.929724 19316.206444 20375.086745 24202.782651 16904.802138 22692.474169 24172.071874 25054.990296 23530.612653 25248.825728 8793.960821 8428.559578 11141.544999 8387.904178 12530.061383 12694.857113 9253.221042 12089.528536 14960.326929 15934.444021 20557.416594 13601.104976 21194.780134 15937.996878 24074.451573 23903.361008 25238.813373 24014.771074 25217.480197 6780.693778 8314.990962 9098.062864 8644.110560 10216.862660 11526.621366 12159.204585 13709.471175 14725.348734 17056.223828 14491.256809 18680.193121 19881.586752 20336.572572 22168.679316 21761.159161 23438.179284 23205.106212 24883.395719 8270.039813 8556.461763 9907.885257 9778.677788 8739.408137 8248.580619 12310.752742 13235.591353 11115.758032 12793.503347 18031.943031 13357.550701 17059.282948 18462.796407 16384.383401 23548.839178 23947.293416 24029.714322 8027.246606 8199.480378 8799.662991 8825.427951 9900.239990 10350.411630 10874.802274 10876.317132 14178.212168 16519.455986 13607.721488 20412.106647 19209.315806 22663.098581 23064.210609 21783.354115 23971.279734 23690.503327 6929.685890 8382.302153 8843.082726 10157.924208 9474.451557 10682.521873 9564.624017 13780.625369 13325.881882 12708.104475 15476.471904 19841.834865 17800.658219 22982.094736 19578.747504 22580.459629 26123.170065 7317.280443 8117.270063 8339.661784 9444.630032 9862.895577 9947.027841 16878.285251 9781.142542 9543.922876 15608.563076 15812.119138 19574.639263 25007.096073 21227.614013 21368.890324 23422.245360 23978.182578 8279.829694 8223.044246 8594.695959 8361.821199 15765.953940 19348.236100 13294.310943 12271.012790 11399.846159 20388.311719 14830.882299 20020.357859 22103.040867 23321.782536 18519.262886 20389.572562 22808.384658 22821.625270 7081.921256 9392.367743 15889.658704 8738.906194 8752.950606 8525.723269 12272.829993 14737.420189 18052.793658 20462.414086 22381.975765 21616.475525 21603.672958 20813.669226 22545.847443 21092.877913 9206.612981 8193.645081 10500.974917 9784.576888 9017.368763 13089.784880 13347.795583 15756.973986 12363.452333 11063.082317 20427.218372 20310.161429 21461.062972 20040.423473 16400.783837 21570.753277 7925.950769 7978.073854 8005.153542 10192.324218 17753.056914 14540.636646 14613.629718 15732.005047 12123.008495 10409.478705 18498.669331 21045.357274 21136.783944 22939.514080 22863.736006 20079.208768 8263.736152 7667.606877 8104.115764 10762.590575 9317.682278 9223.622594 15688.133726 8962.517170 11044.535549 15642.324989 15774.032770 20501.238899 19571.497228 19342.250980 19912.960897 8114.143825 7456.913828 9766.092228 8625.237830 10540.547557 9089.287051 10038.700592 10638.753851 16906.890923 18543.840802 19563.072451 19185.795944 20105.234760 14556.349890 19836.916548 7119.646232 7555.859656 6951.825334 7761.501137 10358.621497 11103.364221 8537.909081 12990.263077 16241.373167 11051.346880 20862.116722 11458.792826 22837.327284 16250.685853 19708.291913 7635.703969 7455.127488 6999.326772 7979.253985 10102.320190 9174.834597 10544.227489 12169.446518 11633.413285 10107.185797 18643.728371 22252.567449 21741.533524 19580.504707 7389.949658 7846.457757 9031.486083 12695.708032 13860.809290 9422.516718 8977.198925 11287.879939 12314.382344 18337.668579 17265.006558 15271.442714 19990.893874 18784.281317 8119.867095 7747.514931 9539.085132 9154.329479 12157.249949 8126.505340 15574.976048 14306.522040 9604.282119 9761.193383 17334.049071 21089.476205 15357.210327 17533.430536 7038.202677 11673.583614 7947.287708 11454.353032 15390.600383 12386.699444 19349.093167 14638.780094 17906.462602 15308.480418 16400.470679 16895.646550 16477.619482 10314.149797 8481.997769 7793.000957 12798.083241 7277.748999 14354.183617 8302.262059 14014.714292 15763.534126 16708.767857 16843.152527 19825.027393 16276.396126 8064.785616 8892.710743 15855.122539 12147.685513 12259.352470 10969.252443 14119.224301 8290.316351 16396.446154 13486.309410 14009.596426 16154.419830 16267.231730 8567.908947 7974.066379 7563.133336 10410.599942 7948.326677 12269.024577 10404.616127 16055.200165 16112.934244 14664.548720 14632.899045 14140.131669 7121.529894 7323.467915 8801.351033 7467.307284 7798.067766 8403.794696 11151.182572 15680.740958 15070.821811 18643.755997 16300.318577 14648.260915 8240.230426 8042.350158 7813.660460 13575.140515 7033.792176 11656.033459 15490.106132 10908.809227 17794.679362 16783.381417 14044.516601 14618.000977 14615.016257 10257.111472 10622.561512 14304.055817 11760.380375 9965.445076 9505.555389 9357.060175 18602.248742 13953.067889 11846.894058 15867.470786 10266.796800 7932.901495 7530.505312 12003.921344 15448.080679 10790.858349 10661.005679 7807.455701 20560.832202 11458.088835 14038.152809 7166.234526 8915.417002 8093.590260 8673.363880 8284.051476 12774.320935 14250.043236 15433.588539 13750.482159 14643.113366 13642.728020 7348.218470 11773.982839 7608.994734 8921.534423 11037.338342 8948.049986 10316.496000 13324.201203 11261.100273 14254.055320 9028.777008 9985.394098 7449.115521 11728.240884 12125.978613 10742.999731 12993.059526 16149.868581 18765.293575 12401.008058 1627.576655 7128.883784 8341.784071 9671.599111 11684.066767 11742.941647 12033.342605 16079.430556 17308.215285 13991.764042 10297.234806 9231.424402 12236.930753 8415.715951 13602.719878 9799.546418 12107.225456 13399.838603 12887.245136 9457.829320 7264.640132 9102.516879 8641.720956 8006.031487 14880.325357 10920.710942 9726.765203 12957.761959 9196.586477 8445.380664 11044.971563 11859.212273 13117.108729 11656.663280 14514.011615 15486.080914 12210.341081 7303.278004 8571.107447 7858.799430 8829.268461 9222.010924 9634.718483 14288.290844 18841.860210 6972.746024 7797.972967 5287.649998 8414.686102 11828.265284 11997.163538 10272.822648 9913.397578 7400.202057 9702.002014 9590.983451 9080.295518 8074.348570 8738.794940 13271.824746 11613.875568 7139.390415 9172.540161 8779.004479 9764.159953 11388.992842 13576.780070 8307.160049 7403.632954 9975.923709 6422.581836 8738.196374 11289.373458 8910.013276 10749.711424 8071.137563 5969.783387 11797.640185 8648.275309 11588.982442 10461.422960 10734.755436 10758.575697 7548.949147 8232.795642 12591.663716 9696.782510 10250.590536 12939.711554 1482.421186 9948.372904 8609.977376 11416.995222 9573.515269 13478.519287 8206.129506 10009.757883 6939.425259 11423.594863 8459.493235 10109.024485 2490.384631 9398.389618 9445.370933 11172.194797 9909.187709 8541.769382 9904.586245 10253.846465 8972.553263 11275.493621 9688.981270 7880.200277 5975.800809 8899.097782 9637.134316 7198.181949 7214.232678 9830.310744 8508.736481 8251.610527 7920.076735 7967.517618 9804.749311 2844.181281 6696.282022 5798.951152 9335.955036 8036.501324 9448.215830 9481.960879 9300.951746 9013.430840 9174.049185 9618.740005 7723.068712 6756.029486 9676.071464 7617.956729 10251.404259 9840.670107 8453.955973 8794.408204 7956.082164 9435.161227 7615.594432 7384.328554 9523.572332 10928.924770 9824.078481 9904.135750 8192.975961 9124.171103 10099.019729 10956.271624 9372.247196 11748.200609 3830.116431 11063.238462 5953.413961 6232.137780 12429.781998 9313.762842 13042.814586 9156.851075 10476.857334 11980.431719 10377.245404 12718.001085 12219.099464 10537.828224 16455.886161 13450.125850 10937.104201 11172.953126 12167.491176 11606.595860 11752.134007 9410.768848 10205.756041 11887.244376 17002.521721 11972.685750 18090.912308 17154.176711 12381.847433 11103.993846 10965.068756 9611.004670 12744.626228 12640.553222 10778.169312 9829.565584 8376.270841 9801.504450 10166.901456 11714.424252 15609.848351 9712.859569 10189.846574 17170.449870 16741.174270 14986.351041 10972.606072 9752.317424 14218.204012 14666.261410 8726.829182 10146.514463 12134.621753 10446.527921 11165.630922 12607.876415 13004.529870 16540.992679 13808.441324 11745.216283 11894.377349 10515.451333 15428.821482 13290.268112 21761.814214 9880.879459 10659.059837 9096.473476 11774.284671 9699.426195 9729.055610 13423.440313 11443.103056 14513.556561 12423.990890 12603.747755 11876.325783 15798.003983 14834.186832 11239.218149 9750.675874 9476.532310 11007.197354 9871.794203 10328.262204 10536.172660 10353.356238 14090.412719 11488.114941 14051.285092 13743.147072 13479.214497 13446.278247 14603.028349 17189.150849 9068.890815 10057.880475 9332.351877 13120.451366 11645.386452 11659.764358 12860.135346 11761.984586 16036.416790 12482.349235 10951.557038 11063.785830 12413.479213 12787.757967 19993.290724 9750.226167 9877.687977 9568.078870 11096.627160 9876.999756 11351.403018 14706.954549 10586.456619 11994.367911 17375.872274 12075.455880 13270.286171 12644.478808 12619.262475 14895.581205 9316.339114 10570.268903 9707.124630 10405.554414 11502.530816 13668.361776 12164.592621 11924.498336 10193.205804 11080.009764 13443.027298 16553.282376 15533.676652 18508.113958 16882.048558 10248.296564 9999.878964 9432.555847 9995.710997 10024.304218 9465.587954 10461.073827 11630.906342 14438.715824 14179.852205 11978.418965 10715.556214 12417.641397 11396.964589 17342.901927 10188.904123 9596.234913 10717.217433 10023.144356 9627.954031 12485.867064 10561.295095 16079.402507 10664.443648 9689.498856 10519.384252 12746.224028 12176.220686 10277.648876 13394.543302 10135.944452 9838.354920 9628.515249 10830.578852 10468.237275 9718.569833 9782.440290 11951.245918 9482.163885 9215.207287 10037.852444 11703.834863 9757.164198 9623.237973 11104.899073 8975.988504 9570.708947 9533.805777 9567.651563 9194.107349 10370.271778 9228.649916 7843.109455 8055.019660 4506.138991 7685.223808 9479.535322 8321.754941 8851.764353 9787.027572
</DataArray>
<DataArray type="Float64" Name="Velocity" NumberOfComponents="3" format="ascii">