<VTKFile type="PolyData">
<PolyData>
<Piece NumberOfPoints="2186" NumberOfVerts="2186" NumberOfLines="0" NumberOfStrips="0" NumberOfPolys="0">
<PointData>
<DataArray type="Float64" Name="Pressure" format="ascii">
 30284.447696 30222.003206 30391.696001 30185.053364 30160.646878 29982.652042 29756.511755 29803.052873 29923.549664 30182.618840 31092.950317 31075.473293 31163.339510 31320.440100 31283.916324 30853.129200 30314.239566 30578.661081 30679.791529 30816.583685 30953.750329 30840.229007 30493.850616 29151.623054 27636.097730 27140.728935 30653.689669 30597.762020 30472.984332 30593.436130 30797.722118 30757.998646 30538.100078 30378.561969 30296.815389 30499.826866 31006.845281 31455.172486 31451.989199 31538.616577 31920.297811 32065.999308 31695.338461 30994.040100 30508.084942 30574.512017 30934.682085 31330.225317 31308.917948 30918.163905 30062.781732 28807.661789 27729.786997 27508.807690 30676.065504 30684.826727 30741.370921 30839.916305 30936.735946 30927.220842 30699.134118 30527.107962 30524.507308 30566.491717 30729.692424 30957.263431 30988.879880 31024.106176 31202.938316 31364.138159 31369.159880 31187.053414 30999.473969 30909.680137 30957.198194 31086.961463 31103.854862 30930.778562 30460.840770 29713.308878 28822.031976 28085.012025 27873.264516 27140.728935 27524.714655 27999.755914 28003.013589 27268.700590 26577.066412 26141.847603 25711.345310 25286.628948 24810.412827 24530.281852 24499.760054 24615.747509 24373.324842 23637.221164 22697.778600 21958.063338 21311.641514 20537.817868 19970.440279 19816.219643 19597.812527 19300.747040 19099.001486 18748.495451 18126.912418 17488.549901 17197.700431 16911.708614 16622.533214 16518.737963 15703.322949 14549.043086 14148.403526 14225.374032 14067.440731 13313.880411 12699.776023 12247.151343 11847.475928 11517.738506 11385.301893 11764.086169 11451.238651 10092.726109 9064.469896 8143.491658 7600.533985 7219.270991 7192.364613 7387.959367 7315.985362 7322.993034 7082.549254 6774.825663 6567.201254 6384.822253 5941.373343 5146.954834 5018.367548 4397.902680 3473.993449 2549.049903 2152.987874 2503.547887 3541.483776 4008.929679 3363.537143 3275.265329 3461.358584 3973.576307 4638.373158 4815.722721 5019.420888 5018.891694 4322.819712 3854.468521 3274.628165 2863.779062 2505.204307 2297.956241 27508.807690 27627.488357 27985.894335 27962.735374 27495.599045 27002.028934 26649.950360 26111.231341 25475.939745 25044.771203 24758.672479 24569.455235 24534.733748 24402.112090 23828.219701 23104.772171 22427.437029 21839.140258 21195.965137 20492.711849 20031.405457 19759.259923 19501.686602 19210.897177 18788.370241 18210.666169 17628.663251 17248.728040 16894.437683 16534.770575 16124.128855 15547.538318 14873.459719 14489.743599 14425.726082 14156.746513 13360.258583 12473.909102 11970.842517 11707.079863 11461.967628 11202.992276 11069.814256 10569.040968 9539.567360 8756.785771 8257.251181 7714.417913 7297.681275 7162.676182 7163.551092 7173.591728 7098.389124 6920.692795 6709.544872 6598.444976 6360.380457 5817.135930 5344.716326 5080.893190 4692.405091 3959.669674 3367.893873 3204.120677 3486.485522 3866.640554 3974.817832 3714.043651 3407.946772 3721.308944 4378.074959 4712.994133 4666.813082 4488.489946 4251.244809 3844.593352 3404.526992 3030.735831 2708.750728 2447.557426 2351.712916 27873.264516 27826.718335 27864.486545 27778.678918 27501.977845 27149.572628 26817.116860 26368.468648 25802.717485 25332.018582 24964.529633 24699.697754 24565.615907 24382.966692 23957.949080 23324.870218 22626.922466 22015.135040 21535.823802 21073.762849 20604.253739 20190.394879 19756.845783 19256.975131 18766.254166 18309.135866 17857.633010 17411.125392 16952.449714 16463.347966 15923.921784 15353.229517 14792.109014 14359.006558 14132.070704 13874.377825 13407.000557 12866.199948 12388.563626 11950.626979 11500.576566 11047.070986 10627.894081 10199.818739 9637.137455 9002.240201 8404.131572 7842.658602 7387.566335 7099.896842 6947.137880 6877.383342 6817.211193 6722.291518 6583.753970 6411.652813 6194.428755 5871.060159 5479.850622 5120.413336 4785.439872 4395.426572 4009.017695 3773.416901 3750.866676 3869.018871 3965.485342 3937.421160 3857.547091 3918.122060 4185.286425 4490.101295 4624.892725 4547.586085 4312.113540 3957.178808 3547.463091 3172.689242 2868.718320 2620.877891 2439.073100 2379.987458 2297.956241 2147.036810 1905.027000 1722.874121 1609.645126 1532.172686 1460.758835 1409.075472 1376.213994 1379.164331 1437.988912 1509.142203 1570.674696 1623.195794 1667.727389 1704.416286 1733.266683 1754.358994 1767.879690 1774.107866 1773.386500 1766.065365 1752.346606 1731.672782 1702.150786 1682.157193 2351.712916 2276.833759 2141.601460 1948.670587 1772.119125 1640.761409 1552.327156 1488.180665 1437.344552 1405.354360 1400.889799 1432.888978 1487.455143 1545.770160 1598.961606 1645.479553 1684.941969 1717.165579 1742.123260 1759.912969 1770.734474 1774.869426 1772.664537 1764.518585 1750.885290 1732.384679 1710.732919 1694.718770 1688.468107 2379.987458 2343.885690 2267.787012 2131.021751 1955.182888 1786.907952 1653.920582 1560.921574 1494.966939 1446.207555 1417.682775 1416.632510 1444.888987 1493.435940 1548.003226 1599.915426 1646.088743 1685.427517 1717.560226 1742.410408 1760.065573 1770.727452 1774.688725 1772.327399 1764.135424 1750.842272 1733.795259 1715.707624 1700.750107 1693.508497 1691.794411 1682.157193 1648.351616 1585.526169 1523.709455 1461.883543 1399.076990 1335.398955 1271.189687 1206.839202 1142.729628 1079.217072 1016.625647 955.245542 895.332626 837.108806 780.762844 726.451529 674.301124 624.409042 576.845691 531.656457 488.863766 448.469200 410.455624 374.789300 341.421945 310.292738 281.330229 254.454149 229.577110 206.606177 185.444318 165.991720 148.146972 131.808121 116.873593 103.243003 90.817831 79.502000 69.202344 59.828976 51.295576 43.519592 36.422371 29.929229 23.969458 18.476297 13.386852 8.641985 4.186179 -0.032618 -4.063173 -7.951145 -11.739278 -15.467596 -19.173592 -22.892415 -26.657051 -30.498499 -34.445925 -38.526820 -42.767131 -47.191390 -51.822818 -56.683426 -61.794096 -67.174642 -72.843869 -78.819610 -85.118747 -91.757223 -98.750040 -106.111235 -113.853851 -121.989883 -130.530215 -139.484530 -148.861211 -158.667213 -168.907912 -179.586940 -190.705986 -202.264581 -214.259871 -226.686379 -239.535790 -252.796777 -266.454922 -280.492805 -294.890362 -309.625654 -324.676278 -340.021762 -355.647621 -371.552634 -387.763662 -404.371513 -421.629965 -440.350105 -461.975109 -474.994708 1688.468107 1673.004288 1635.931342 1581.402440 1522.649962 1461.608185 1399.021827 1335.396415 1271.190247 1206.828724 1142.704820 1079.177993 1016.573396 955.181530 895.258345 837.025742 780.672444 726.355180 674.200141 624.304660 576.739057 531.548626 488.755699 448.361762 410.349585 374.685334 341.320637 310.194585 281.235645 254.363470 229.490598 206.524029 185.366670 165.918652 148.078516 131.744265 116.814289 103.188169 90.767360 79.455764 69.160194 59.790753 51.261109 43.488705 36.394885 29.904962 23.948232 18.457936 13.371185 8.628847 4.175413 -0.041163 -4.069637 -7.955661 -11.741970 -15.468579 -19.172972 -22.890291 -26.653515 -30.493632 -34.439804 -38.519515 -42.758706 -47.181904 -51.812327 -56.671981 -61.781744 -67.161430 -72.829841 -78.804808 -85.103213 -91.741000 -98.733171 -106.093766 -113.835828 -121.971357 -130.511239 -139.465164 -148.841519 -158.647265 -168.887789 -179.566729 -190.685785 -202.244499 -214.240027 -226.666903 -239.516820 -252.778454 -266.437385 -280.476175 -294.874714 -309.610966 -324.662303 -340.007681 -355.630989 -371.526038 -387.703734 -404.201590 -421.091270 -438.417592 -455.756664 -467.972296 -472.681357 1691.794411 1686.067466 1666.197222 1627.998487 1578.207293 1521.502558 1461.201398 1398.866933 1335.334237 1271.169749 1206.833060 1142.727736 1079.216489 1016.625467 955.245486 895.332609 837.108800 780.762842 726.451528 674.301124 624.409042 576.845691 531.656457 488.863766 448.469200 410.455624 374.789300 341.421945 310.292738 281.330229 254.454149 229.577110 206.606177 185.444318 165.991720 148.146972 131.808121 116.873593 103.243003 90.817831 79.502000 69.202344 59.828976 51.295576 43.519592 36.422371 29.929229 23.969458 18.476297 13.386852 8.641985 4.186179 -0.032618 -4.063173 -7.951145 -11.739278 -15.467596 -19.173592 -22.892415 -26.657051 -30.498499 -34.445925 -38.526820 -42.767131 -47.191390 -51.822818 -56.683426 -61.794096 -67.174642 -72.843869 -78.819610 -85.118747 -91.757223 -98.750040 -106.111235 -113.853851 -121.989883 -130.530215 -139.484530 -148.861211 -158.667213 -168.907912 -179.586940 -190.705986 -202.264581 -214.259871 -226.686379 -239.535790 -252.796775 -266.454915 -280.492784 -294.890292 -309.625424 -324.675519 -340.019259 -355.639364 -371.525378 -387.673631 -404.073808 -420.647629 -437.047178 -452.160460 -464.072064 -470.017278 -471.516618 -474.994708 -493.596015 -530.245980 -571.056996 -620.166304 -682.431187 -762.754240 -866.126676 -996.403764 -1153.478008 -1328.787264 -1502.258082 -1654.503046 -1824.185581 -2167.386428 -2996.797510 -3679.887356 -2827.314309 -1446.131764 1077.114457 2591.418997 2940.000254 3110.031698 3632.290737 4109.818451 4460.553871 4992.545271 5420.571544 5933.451892 7067.090473 8044.041557 8693.824241 9789.189428 11148.122672 12481.741405 13972.777009 15350.322081 16777.875514 18021.653227 19013.329094 20247.368150 21594.548604 23064.779270 24369.726385 25457.112109 26812.755622 28081.593522 28803.221998 29316.769756 29916.319231 30284.447696 -472.681357 -480.544964 -500.531062 -532.320313 -571.249874 -619.737442 -681.654090 -761.698317 -864.853047 -995.090718 -1152.554198 -1329.017466 -1504.033555 -1652.489274 -1788.597903 -2025.737825 -2536.046075 -3188.682034 -2887.506325 -1091.497459 1024.814192 2043.793635 2475.109437 3026.605091 3645.699120 4173.916122 4629.942794 5113.856587 5636.782055 6272.547844 7142.079503 8055.265482 8923.724513 9983.824063 11253.108122 12590.114834 13966.776027 15414.476098 16803.407006 18010.162230 19139.159831 20306.421896 21604.050887 22954.457635 24228.219038 25439.921571 26698.346420 27954.945818 28906.918401 29558.323463 30064.351553 30452.702060 30653.689669 -471.516618 -474.309988 -484.405369 -505.002305 -534.272718 -572.233986 -620.518438 -682.532486 -762.777302 -866.129691 -996.430961 -1153.636418 -1329.363843 -1503.075551 -1647.633029 -1762.734835 -1922.404904 -2206.177766 -2471.025539 -2233.039977 -1164.224909 207.992436 1323.313959 2187.698309 2963.665143 3648.983600 4215.395381 4710.784216 5211.332957 5770.775685 6442.500891 7246.637354 8126.721431 9069.600485 10144.898149 11383.601517 12699.997480 14061.661512 15478.687276 16850.438454 18101.692304 19262.503311 20417.392495 21646.947646 22916.740521 24174.958434 25416.217307 26638.196389 27784.405761 28746.157384 29484.263516 30040.008749 30441.899691 30629.297772 30676.065504 7932.241035 8394.506280 8373.787200 7910.425967 12995.554129 14171.825203 15090.062302 19868.110496 18646.908836 9052.132967 21920.973531 22646.799645 24237.815465 25808.952997 26168.163334 25133.708516 27617.995491 28051.918944 29022.544771 29674.094385 10697.270525 14366.627193 7520.006792 18438.603521 9598.551967 13182.338749 10309.397052 18745.784366 20544.816059 18593.994171 23982.512250 25156.340942 26566.084302 27430.273106 26923.869928 24989.944771 28838.974563 28356.485997 29263.506535 29378.988817 15319.214416 16649.410928 10099.490948 21817.509719 12057.396779 20133.985780 20162.528439 27938.203255 23500.675846 23872.871713 24519.644355 25401.644794 23469.798412 26916.971225 27520.436104 28422.447250 28044.049989 27925.579678 29812.431022 28733.488149 21438.685049 25292.487719 16782.586290 20540.727551 16946.968197 26438.797498 17408.101535 24058.890361 22869.929476 26346.816775 26511.250614 29270.456451 27169.627377 27984.344088 25992.779442 28733.690136 29596.694176 28547.790227 29566.861673 29426.884632 20543.305178 25969.819058 8855.974078 17400.879869 25019.683371 22179.445334 17042.244801 23048.095106 24729.521342 16519.278594 28483.473229 24523.715157 25597.023081 28295.288462 27215.005801 28085.850220 27009.074692 29010.204259 29065.298026 29417.899125 11804.751576 19092.085358 12895.054027 14233.057994 14984.618556 18086.118250 20881.429112 27755.124867 19865.169235 21832.611666 25964.970802 28629.461141 21606.454264 21980.877918 27211.315726 27920.676030 27154.476237 28896.756257 28348.602994 29409.300227 21276.045461 18215.255542 20083.610509 17607.082387 14365.095620 23833.036647 27200.807980 23833.047903 24459.179862 19240.872423 26048.669619 25217.613129 27183.769071 27517.785426 25982.052936 25293.490942 27836.077867 28542.645650 29099.692134 29173.479982 20922.333478 15757.265150 17993.907540 20548.704345 19184.910289 17834.085025 13968.346393 19343.443845 23179.231565 19858.825885 27185.755491 25239.665425 26723.949247 27157.666937 27326.649310 27984.189827 26509.131530 28360.471069 27608.490241 29493.874819 16366.920866 15932.299907 19607.582902 11179.601046 21357.206712 15736.145834 19783.649380 16327.848932 17529.769237 19460.624027 17596.493349 20867.410432 22666.784174 25206.285493 25804.733365 23022.818322 26388.147769 22597.875820 29762.672021 29829.781724 13275.032846 18845.433175 24513.984436 13376.325822 18559.675469 22579.628980 17559.694455 17726.936534 17557.786557 24222.718288 23089.536097 23032.638501 23304.203073 24596.233401 22514.845142 24600.496667 27444.603334 28474.104999 24089.707681 30206.888561 19868.679362 24232.326918 18122.561619 19066.426197 23443.600170 24660.369250 19242.728339 20167.370054 21251.437371 22018.995658 21617.091623 26447.709275 21647.605862 28382.810632 25055.282122 27962.580376 23965.073035 27732.649792 30070.121382 28562.997028 10241.301292 10668.581042 15005.471704 23005.577294 17096.926047 19144.779576 15356.870196 13139.465677 20000.741147 27379.900488 23415.282609 21970.123507 27045.720359 22530.652816 21204.762364 27538.291535 26872.138146 26123.618363 27079.223289 29566.812440 12911.394103 14167.517379 13982.877776 17019.082546 19443.322299 15529.082201 17466.866601 22912.481587 20589.133865 18647.796761 16698.835422 23539.549990 19519.544598 26520.521390 25308.923647 23782.686938 27370.318538 28176.975848 29745.083445 29681.584982 9492.930334 10034.367948 16041.659139 11551.648352 16730.977794 20035.145440 16844.731507 18551.473554 16719.327556 23697.850037 22419.045013 26129.655296 28386.081712 25321.168010 27271.031783 25586.508418 28616.273351 28426.930044 27214.737985 29950.447021 7901.924559 8536.318969 12355.834179 16148.534888 16015.825718 22159.896685 16726.548964 23164.633636 20611.535332 16618.248520 25716.509973 20995.046538 26741.163865 27032.897750 27201.150400 21926.340691 24018.789957 30601.967293 27271.524102 29976.589284 9665.961294 9180.978097 10037.777318 9363.119661 18070.900847 23732.490613 14308.103856 12196.585534 21071.678445 15310.671620 21471.636136 18633.101403 28088.737285 25123.654732 29040.714449 26579.567287 23989.443012 28727.947482 27316.021821 30246.256216 10661.442980 10857.236326 9638.952693 10910.311601 12802.028294 11698.943659 18060.890128 21229.027414 19856.704130 18390.572358 15304.811380 25865.746452 24184.804753 26862.831145 22854.488276 27089.943780 24671.159292 28256.106530 30482.966934 30679.293400 7677.903494 8771.876046 9743.385547 8937.563031 10308.753710 11816.990075 14141.226215 13291.652866 16049.328492 16939.214262 25358.960597 21027.042194 21626.027221 21366.766586 25864.027359 24266.753306 25341.852927 30265.353995 28375.391211 30208.956465 7497.004184 10147.574756 9373.728240 10920.238802 8919.746513 9418.497956 10757.834823 12029.648199 22438.492424 23562.151575 24079.171356 22631.783049 28251.992602 25185.821167 26665.331595 27378.177171 28756.578670 27626.128682 26034.553423 29397.403016 10099.693164 7858.952557 10050.711629 9682.378221 10331.437021 10276.359271 10290.891060 18913.376230 17759.219224 16666.456215 21581.996917 20324.149950 27625.994220 27311.698361 28083.506438 26933.019248 28442.310555 29899.419763 29864.259868 30001.440341 10500.410243 7606.655788 8847.173716 9150.950869 9820.623723 13611.982654 13513.669548 15143.155758 15412.574387 20807.166917 22577.263880 20284.862530 22736.153831 27540.287513 24780.030004 25827.783013 26814.214993 27391.188174 26473.785811 30037.418314 4559.865850 7085.899007 9960.971938 9163.541823 12578.652744 11144.070180 14320.471152 16839.216637 12983.006225 14282.717505 24133.526134 25276.342459 24413.831731 26067.231716 27488.163822 22287.436330 24543.543615 25398.641986 29561.960166 29961.053965 12313.370420 9312.937683 12261.635547 9726.826516 11148.841666 10716.927676 14996.563908 13868.307637 17342.917397 20171.780583 18870.191073 24831.838478 22868.372131 25548.609697 20631.948962 27574.036341 28746.007263 30353.659563 28525.014307 28943.721596 4612.769634 9519.473889 9674.821343 8895.030482 11399.367918 9889.411721 17565.730133 15112.377847 12044.221552 21826.937866 24083.835416 25543.811785 24334.586475 26252.618717 28323.865167 28296.287748 28515.193152 30512.174717 27999.096554 27580.560149 11269.318919 11770.276308 9906.804023 9425.425184 15828.084623 11605.376719 11750.072023 16952.586702 13955.381732 16821.513944 16657.382095 21797.332585 19820.245964 18816.581416 25824.196526 25416.189377 28219.651374 27458.015058 27363.497758 28076.950232 10999.944804 9984.349010 10419.765287 9941.610727 12559.389012 12633.204440 13073.568889 13752.238450 15318.040809 18756.028361 16919.838794 18861.852228 24144.574972 23621.043012 18397.265169 25175.879366 26549.067056 27273.273549 27340.689167 27407.843175 8299.158879 8978.246957 10091.957331 10206.179959 15286.995462 12319.497960 11341.470625 13862.644729 15311.525307 22363.235862 15350.972990 21405.431618 18540.163547 24314.968571 23079.785055 25900.365466 26171.035734 27901.055804 28108.372269 10049.669616 8351.562177 10183.271668 9671.890831 10122.620001 14232.122169 11533.960217 15042.513138 21244.509748 18345.180237 21736.394568 22869.706311 25261.383378 19416.215136 23985.417961 26093.939866 25940.783193 25815.876431 27372.680034 9130.575828 9792.322366 11958.511242 9685.501519 13635.929822 12548.019349 10036.396990 14002.221178 16132.519306 16902.858329 20989.842179 15685.653168 22291.632527 17648.299422 25540.383846 24985.776733 26178.206838 25405.358020 26506.119919 6457.335056 10193.553076 10690.386041 9770.011349 11046.024081 13662.581819 14054.406846 13957.658802 16038.916473 17964.955298 16217.810367 20714.420915 20594.590935 22880.936372 23789.015327 22912.911363 24214.636556 26978.691204 26243.959879 9442.958503 9318.725530 12779.369507 12037.146783 9594.187516 10385.367695 14508.950660 14582.039345 12945.877534 14084.819538 20389.325162 16357.848201 19816.134962 20956.668391 19221.270720 24461.517817 24896.717805 25793.783709 6319.859813 9312.420634 10134.789760 11258.462251 12410.020864 12144.357812 13234.324555 12682.162995 15347.900696 17387.370446 15825.882083 20439.913475 22142.001468 23559.288708 25278.647984 21950.250656 24736.629059 25177.944274 5617.571121 9708.311140 9496.030878 14081.389498 10598.083644 13183.734391 11337.697704 14975.087528 16578.120713 15085.395874 17704.259970 21101.901854 18768.066488 23252.352113 22519.775229 24581.538060 27416.925245 6684.813218 9360.390441 10292.756494 11644.942161 12487.838975 13272.758473 18271.512647 12003.578755 11183.985822 17021.684790 18460.397024 20836.456482 25282.512064 24558.831926 23806.253713 25242.071228 24760.498183 10506.725339 9817.179132 10518.328682 10409.708062 16142.776009 20003.450817 15117.839862 12464.759119 13446.052712 19631.869886 17331.247912 19625.823442 23632.372168 23875.383490 20130.815960 23694.992132 24453.566777 24461.814745 5501.749188 10116.258836 16838.305374 10760.715003 10231.563244 11000.650274 14694.441961 17209.470435 20331.289799 22570.386229 20872.936741 21876.512408 22986.381851 21500.050775 23175.821075 24433.123735 10809.589765 9186.996052 12164.697094 10940.378426 11199.043491 15172.977362 14957.122025 17292.135551 14328.822970 13407.587653 19556.820215 21030.434241 23116.030498 22505.617644 19402.562390 21914.999227 6606.125787 9314.311744 8493.451987 11052.753655 19149.074846 15741.928464 16804.512353 16985.252478 14549.788265 13907.733209 21304.246471 20167.108890 22532.581941 24633.375205 23854.688215 23088.624973 10083.039680 7331.380230 9671.129019 11863.323050 12109.072601 10343.860181 16100.602849 9373.864558 13651.038152 17163.323270 18746.032955 21436.392362 20164.481090 19737.340868 21759.101394 6213.125014 6438.931047 10999.357920 9396.751640 13663.390559 10820.449271 12347.400377 13221.930016 17875.726671 19033.222203 20244.257536 20538.849586 19680.843733 15125.088914 21263.177432 4156.029982 5256.602471 6950.360460 8822.863008 12457.680960 12138.435024 9128.326610 14288.137788 16613.132875 11863.217784 22434.276736 15765.956233 23993.751180 17372.242377 20605.689518 5914.278649 8612.996169 6477.134992 9240.250234 11894.537533 11329.101910 13325.947119 14609.714783 14493.522080 10496.842139 19124.529447 22956.805585 23286.782962 20093.543954 1004.043159 5891.751482 11716.384614 14012.745758 14955.251553 12340.830252 10545.873190 15646.696245 15692.134839 17788.394063 18094.525434 17591.653583 21080.128224 19788.932973 7159.652953 8587.788336 11288.782181 9493.921646 14797.062465 8797.936301 16059.351842 17421.088372 10855.721935 12952.076072 18462.461197 20425.874306 15576.218718 19441.767665 7755.103252 16455.496105 8357.282447 13595.603217 16687.651641 13999.193487 18912.364034 16690.916068 19208.124947 17388.887008 18134.108493 19339.771761 19146.753226 12433.504688 8112.091335 8523.918995 14567.522907 6756.680177 16402.736535 10085.516433 14903.714728 18326.431610 17578.267389 18364.519189 20358.112948 18935.070816 5105.576090 10308.469745 15390.862480 12820.067721 14342.277485 13494.475131 14725.874548 9821.458971 18362.037054 15741.302147 16485.363188 18397.842350 18731.939655 10521.189758 7018.590190 7503.604287 10367.605536 8721.878676 14875.864508 13424.104318 18153.040572 17531.659282 17253.949154 16618.303670 15657.373486 5127.227665 9184.704431 9564.084858 5379.839562 7980.209372 8744.850526 13998.112192 16839.059267 16356.531610 19838.063970 19217.737363 17392.753615 9219.844821 9406.395629 7599.232373 14309.316107 7214.457369 13197.060224 16469.610566 13117.296683 19612.700290 17953.214706 16505.321747 17317.220323 17322.749162 7799.451040 11172.528804 13571.803930 13816.246104 12952.516574 11697.863601 10872.888454 18944.796684 15135.237046 12211.229313 18044.831195 8724.225806 10137.985462 3925.104435 12235.827258 15556.508858 10310.102006 11547.920898 6601.954318 19896.418240 11309.508527 16452.132517 6269.825120 9160.562334 8078.431466 8925.529736 9070.052190 14000.847046 13201.018344 17232.929804 15912.247260 16767.600650 16234.677003 2888.640177 11598.512670 9214.346839 10071.525598 12599.642487 10322.823955 10691.138620 14552.906518 12090.158676 14756.583390 6561.615009 10290.227808 9821.982060 12675.326434 12885.558810 12414.271254 16413.851545 17296.060971 17167.718781 13726.208953 1390.519794 6568.433328 9931.610296 10240.562192 11792.878899 13278.142352 12663.853217 17365.827441 18980.876769 13598.931621 10481.056747 6994.132544 12723.278441 10004.671026 12783.061274 11223.808928 11900.635698 12622.728267 13701.676659 6995.976230 8501.694020 9786.701004 10327.924606 10413.295935 14352.294458 11396.879139 10865.750100 13535.471010 6712.562155 8124.195683 11238.153328 12127.854095 12574.579055 12124.553610 14741.840157 15157.897162 12909.402621 3822.027568 7056.692040 3639.702028 10186.461514 9595.996362 11659.094976 14195.296395 16667.899924 9413.502017 8292.341610 8349.476377 10158.138343 13691.795479 12567.856614 9533.663764 10538.976398 3778.779589 6924.213675 9868.639306 10156.670799 9947.696191 9061.551796 15946.887026 11593.160254 2493.464370 6778.285414 9668.041683 9711.289645 11396.576093 12136.671378 7774.502734 10929.473881 10697.721684 5220.566624 9967.893208 12765.259956 8121.467317 11718.139204 5578.266831 2185.519877 10888.881533 3311.695920 11840.677056 10701.363230 11640.598992 11718.039928 10983.684469 5654.234954 12847.029204 7144.241136 8391.670042 12659.633195 1372.249789 7548.405899 10301.757762 10614.692866 9219.790308 12407.480509 4192.368957 9692.221949 8594.979128 11314.823385 9270.563809 7949.260430 1602.428892 7221.555772 7097.863580 11994.050280 7396.924236 4613.714406 7706.657554 11296.369024 8295.510806 12729.403296 7456.055467 2403.668657 4989.565666 7877.027666 7150.587868 9176.478733 2014.706320 7248.545018 9597.558370 10276.671144 5453.346592 3613.844389 7226.173726 1697.510567 2983.034433 9247.484006 6967.039974 9899.357892 6350.140884 6619.218371 6786.459636 4961.020474 4528.224875 6021.860811 3749.453919 1614.621930 5937.772121 4053.865278 10606.644045 3041.381931 4028.294769 5292.473928 4911.497099 6975.567396 3151.381657 2154.390074 -1475.580419 178.228532 7531.226352 6769.036160 6225.916384 6675.962862 7899.968461 6819.682222 6967.294584 8326.237426 4517.657817 9556.720591 5491.886199 5854.553839 11594.002306 6394.664195 13339.620692 7283.797151 10083.686058 9982.147487 8913.197933 12876.674104 9412.240975 9032.673989 17062.101784 13086.103594 9983.168847 9801.090613 10981.991577 11440.930645 9758.554835 7059.743788 8624.003934 11532.637047 15870.308404 10847.045976 19221.538533 18659.906156 11377.171651 10638.100493 9718.836031 7947.758075 12414.761108 11568.691737 9454.020941 6445.654499 5773.742292 6536.945324 8456.380691 8786.350752 14496.267870 7678.586880 8474.677056 16327.006582 18491.639413 13074.871933 9646.094642 7445.224897 14900.004185 15660.991637 6567.193529 8570.927247 8261.215275 9232.718070 10322.441206 12349.970873 13130.011931 15561.771090 14617.517525 10723.012028 11683.457691 9135.991898 14975.841327 11706.683640 21861.870479 7966.139360 9509.605311 7581.606901 10646.921868 9472.734626 7945.590924 12506.613697 10438.838335 13635.030137 13432.615376 12861.120855 11090.860744 18617.414703 15892.477365 11333.382003 8362.605389 8520.222418 8989.745860 8226.142833 8625.366157 9725.135597 7427.519810 16067.241895 11434.070494 14996.121390 13740.907550 13876.363700 14980.729722 15629.552303 18134.492346 7579.468947 8106.077516 10285.856177 12028.418032 10634.533572 11556.126602 14150.358294 12051.031430 16959.963187 12183.979551 10579.599986 10550.446778 13722.792475 15443.017878 21087.747287 8031.335366 9729.107928 10132.697996 9785.040802 9971.979284 11677.616077 14108.596089 9300.739279 13007.965588 19456.894952 14002.425588 14774.951047 12798.065734 13119.930643 12695.372212 8219.239649 9473.711726 9301.404873 9527.684941 11367.137687 14721.510048 10879.434915 13560.569398 8966.928787 11126.533401 15179.311426 17474.100210 14865.119686 20665.706065 19905.190407 6720.971220 8741.660443 8245.569477 8228.602028 9577.651171 8713.274235 9262.706177 12483.663359 15964.254180 16269.945322 11688.559857 11633.352964 12896.761259 11831.445227 20119.158347 6262.327171 10017.402743 10591.090748 9796.531864 9222.488827 12360.810820 9794.595478 18272.570275 9898.470443 7858.591567 9923.086842 14567.846260 13554.158524 10107.621176 13487.626156 9642.489792 9697.856782 9594.294761 9838.027160 9750.358268 8757.889158 9050.199915 10929.054511 8357.830554 8627.184356 9729.543235 12505.337508 9133.141176 8315.557060 11512.173656 10352.143988 9113.580169 8574.604881 7644.917873 9576.610950 9925.179427 10892.134308 9163.234713 8780.997994 10768.605091 6125.902667 9330.521849 9130.040229 9530.316887 9793.337222
</DataArray>
<DataArray type="Float64" Name="Velocity" NumberOfComponents="3" format="ascii">