<VTKFile type="PolyData">
<PolyData>
<Piece NumberOfPoints="2186" NumberOfVerts="2186" NumberOfLines="0" NumberOfStrips="0" NumberOfPolys="0">
<PointData>
<DataArray type="Float64" Name="Pressure" format="ascii">
 27265.896595 27223.608869 27477.177927 27609.035255 27953.416802 27416.994999 27400.442415 27433.743684 27175.737675 27401.239535 26917.684027 27208.334178 27545.681169 27799.695591 27880.160856 27968.602087 28043.733247 28228.747581 28272.420550 28360.902585 29088.363950 28698.514792 28120.105589 27710.506444 27003.040603 26578.641132 28055.043033 27796.161559 27415.126487 27509.657542 27782.633129 27999.554934 28093.849640 28261.317538 28367.566830 27930.059182 27450.427478 27295.207366 27712.386065 27848.231784 27864.550984 28074.811561 28431.725477 28378.152409 28176.505278 28565.111971 29251.064959 29249.241946 28904.427920 28799.722485 28799.700333 28076.650457 26926.096645 26443.739030 28009.804288 28085.187425 28151.377608 28077.212467 28087.838511 28275.493951 28369.931715 28396.362406 28432.612508 28545.728271 28563.139350 28315.925957 28186.074686 28194.903165 28173.897055 28136.323679 28211.996216 28400.475571 28602.433763 28750.254034 28992.965870 29207.368512 28975.345137 28511.001744 28206.382665 27812.961364 27156.590728 26451.564656 26209.806167 26578.641132 26409.481346 26823.408502 27010.363495 26834.884133 26307.925211 25378.925744 24539.066898 24106.183436 23904.746287 23250.886550 22812.680432 22669.936756 22526.986781 21954.414014 21394.032742 20792.640220 20381.746205 20228.428937 20141.886582 19657.654717 18729.705536 17766.800649 17218.074886 16820.275084 16454.398348 15952.579056 15770.970202 15619.049052 15476.687394 15296.920294 14979.842404 14739.981070 14450.802835 14282.417940 13843.985941 13202.990962 12541.406540 12128.337173 12409.336335 12615.194904 12266.533596 11479.563823 11066.638569 10561.666534 10482.656850 10671.224090 10699.214368 10560.536813 10220.189441 10025.510565 9511.044455 9246.172117 8939.561849 8115.452743 7426.128292 7321.897731 7218.630837 7126.158507 6769.054278 5595.893114 4319.271933 3577.786162 3878.269169 3927.046760 3074.532469 2579.029745 2242.988659 2071.771277 2035.180978 2013.650438 2012.579971 2036.356732 2079.710007 2123.178129 2137.291853 2179.527465 2126.240723 2043.063295 1888.228901 1781.246992 26443.739030 26355.218272 26582.537037 27012.199790 26982.397181 26528.208988 26021.785854 25555.010777 24859.263799 24018.838602 23321.272401 22892.667285 22618.393677 22548.045670 22383.848867 21856.073882 21171.848593 20763.711252 20630.887070 20426.479294 19902.041809 19162.853958 18270.979276 17490.385711 17005.166583 16607.312371 16160.873957 15924.643840 15733.931077 15569.538563 15361.315289 15089.582667 14795.292990 14526.320687 14308.818738 13973.477557 13343.680471 12659.762184 12335.096389 12268.325771 12114.463251 11723.612400 11274.163807 10946.814675 10570.755554 10377.165208 10475.954315 10558.751599 10358.033208 9930.036158 9557.334843 9250.334964 8884.153397 8422.700561 7850.890712 7364.459143 7086.373566 6839.210688 6480.765550 6062.868326 5288.150929 4194.709834 3326.262026 2908.358460 2780.757152 2607.636756 2325.508712 2129.628134 2051.485245 2016.218694 2003.017994 2012.675646 2040.244294 2077.383779 2110.604574 2113.475661 2097.057386 2055.769644 1974.301245 1863.607727 1812.629456 26209.806167 26237.225965 26434.847177 26667.737372 26666.704676 26347.793972 25938.110447 25502.122447 24890.151727 24181.513827 23593.772800 23142.669590 22781.621633 22513.546640 22266.255235 21824.523295 21232.373670 20721.918294 20333.225812 19933.228607 19448.920814 18931.846816 18404.081526 17886.267981 17457.830421 17054.522389 16626.772209 16254.497100 15952.867048 15679.304295 15435.821959 15190.114161 14880.775334 14555.404083 14266.240933 14005.685231 13654.211768 13180.522452 12748.291367 12415.481019 12100.990856 11710.865885 11293.420799 10957.967679 10689.161125 10467.653501 10339.284696 10277.656001 10152.473845 9905.690664 9605.224142 9305.955837 8961.458504 8544.959054 8073.937245 7571.240043 7101.159319 6688.183364 6280.184547 5824.869365 5247.085017 4499.051036 3724.975722 3120.874025 2736.327627 2500.753488 2318.909798 2173.049629 2080.062970 2027.991875 2003.469332 2002.082556 2019.397147 2047.141241 2074.691632 2090.541107 2085.177294 2057.290965 2005.984251 1931.799104 1858.255981 1830.938797 1781.246992 1676.355552 1501.920052 1367.661710 1284.403961 1224.287932 1162.592573 1113.955662 1077.840286 1063.958093 1079.732960 1103.839135 1126.292880 1144.765268 1160.173375 1172.824498 1182.844219 1190.335968 1195.413350 1198.202235 1198.833947 1197.429204 1194.053516 1188.540118 1180.296061 1174.582736 1812.629456 1765.051191 1672.417275 1536.218254 1408.014909 1310.037838 1240.948497 1186.375874 1137.958726 1100.335210 1079.621092 1081.370971 1097.555194 1117.898417 1136.457074 1152.534253 1166.116251 1177.234433 1185.952017 1192.356095 1196.551927 1198.657512 1198.798849 1197.106408 1193.716415 1188.804143 1182.855563 1178.404299 1176.697322 1830.938797 1808.514587 1758.249638 1664.824123 1541.505974 1420.146984 1320.980091 1248.021830 1191.609750 1144.124876 1108.101897 1088.998385 1088.381482 1101.297430 1119.215550 1136.930368 1152.782369 1166.295306 1177.378187 1186.061853 1192.425691 1196.574297 1198.628470 1198.723058 1197.015421 1193.722102 1189.231260 1184.326021 1180.222239 1178.257066 1177.815049 1174.582736 1164.252786 1144.847902 1125.459673 1105.734976 1085.311244 1064.156861 1042.314041 1019.845220 996.816576 973.293291 949.338274 925.011919 900.372146 875.474507 850.372294 825.116624 799.756503 774.338876 748.908647 723.508697 698.179881 672.961020 647.888878 622.998140 598.321383 573.889043 549.729387 525.868476 502.330147 479.135978 456.305283 433.855088 411.800139 390.152898 368.923561 348.120083 327.748210 307.811524 288.311501 269.247574 250.617215 232.416024 214.637830 197.274804 180.317587 163.755423 147.576316 131.767185 116.314047 101.202204 86.416448 71.941278 57.761141 43.860676 30.224989 16.839940 3.692447 -9.229181 -21.934898 -34.432547 -46.727463 -58.822053 -70.715347 -82.402529 -93.874434 -105.117025 -116.110842 -126.830421 -137.243697 -147.311379 -156.986305 -166.212784 -174.925917 -183.050921 -190.502434 -197.183841 -202.986593 -207.789554 -211.458376 -213.844909 -214.786657 -214.106306 -211.611314 -207.093599 -200.329330 -191.078832 -179.086631 -164.081644 -145.777517 -123.873095 -98.052891 -67.987139 -33.330001 6.288774 51.294212 102.270861 160.309965 228.517288 312.443357 364.628605 1176.697322 1171.935955 1160.523956 1143.611916 1125.154649 1105.669716 1085.315345 1064.179582 1042.340227 1019.870344 996.839344 973.313392 949.355695 925.026731 900.384441 875.484383 850.379847 825.121947 799.759689 774.340014 748.907827 723.506011 698.175419 672.954874 647.881142 622.988908 598.310752 573.877111 549.716252 525.854241 502.314912 479.119848 456.288359 433.837477 411.781943 390.134220 368.904505 348.100749 327.728697 307.791929 288.291917 269.228091 250.597919 232.396997 214.619148 197.256538 180.299801 163.738175 147.559655 131.751154 116.298679 101.187523 86.402468 71.928003 57.748561 43.848772 30.213727 16.829272 3.682311 -9.238864 -21.944224 -34.441630 -46.736436 -58.831069 -70.724583 -82.412182 -93.884727 -105.128206 -116.123183 -126.844225 -137.259294 -147.329128 -157.006597 -166.236038 -174.952587 -183.081488 -190.537414 -197.223779 -203.032062 -207.841158 -211.516744 -213.910694 -214.860533 -214.188964 -211.703458 -207.195940 -200.442582 -191.203705 -179.223826 -164.231859 -145.941475 -124.051654 -98.247441 -68.200905 -33.572334 5.988296 50.839232 101.341036 157.823719 220.252074 286.310474 334.095103 352.236273 1177.815049 1176.042464 1169.918992 1158.125192 1142.636887 1124.793902 1105.529333 1085.247970 1064.137382 1042.308045 1019.843374 996.816008 973.293116 949.338220 925.011903 900.372141 875.474505 850.372293 825.116623 799.756503 774.338876 748.908647 723.508697 698.179881 672.961020 647.888878 622.998140 598.321383 573.889043 549.729387 525.868476 502.330147 479.135978 456.305283 433.855088 411.800139 390.152898 368.923561 348.120083 327.748210 307.811524 288.311501 269.247574 250.617215 232.416024 214.637830 197.274804 180.317587 163.755423 147.576316 131.767185 116.314047 101.202204 86.416448 71.941278 57.761141 43.860676 30.224989 16.839940 3.692447 -9.229181 -21.934898 -34.432547 -46.727463 -58.822053 -70.715347 -82.402529 -93.874434 -105.117025 -116.110842 -126.830421 -137.243697 -147.311379 -156.986305 -166.212784 -174.925917 -183.050921 -190.502434 -197.183841 -202.986593 -207.789554 -211.458376 -213.844909 -214.786657 -214.106306 -211.611314 -207.093600 -200.329333 -191.078842 -179.086662 -164.081744 -145.777844 -123.874161 -98.056371 -67.998498 -33.367079 6.167729 50.899028 100.980059 156.103713 214.582427 271.219687 317.119800 339.947223 345.412854 364.628605 442.156157 587.052120 731.712431 880.131145 1036.014217 1200.459533 1373.922370 1556.619926 1748.645513 1949.989865 2160.535690 2380.048449 2608.175499 2844.463579 3088.403754 3339.509698 3597.426717 3862.052151 4133.619169 4412.648278 4699.582235 4993.677211 5301.113373 5620.090951 5936.705113 6594.398194 7158.503608 7686.012994 8788.689199 9566.019498 10176.572151 11308.782767 12265.156682 13153.769949 17156.483715 18721.764545 19302.611489 20648.248764 21199.595678 21774.700982 22339.416554 22878.232060 23526.309349 24100.707494 24501.445325 25000.571093 25747.653194 26595.549403 27242.153820 27265.896595 352.236273 387.136990 471.238802 596.572006 734.027089 880.559807 1035.873160 1200.142571 1373.549866 1556.231114 1748.255473 1949.606827 2160.166141 2379.698272 2607.849618 2844.164865 3088.131621 3339.259057 3597.188874 3861.821877 4133.420259 4412.616387 4700.224544 4996.710262 5302.879793 5635.284501 6020.762061 6550.171851 7140.210327 7791.509297 8668.530228 9486.599439 10300.960147 11526.730316 12896.466271 13937.255065 15709.302732 17814.505984 20033.402754 21149.124525 21495.194604 21998.319483 22557.330412 23068.162321 23643.883298 24284.521063 24823.053689 25390.414662 26165.993426 26845.949934 27289.113142 27728.492838 28055.043033 345.412854 358.367455 403.041871 489.651717 604.072702 736.835189 881.711848 1036.500222 1200.609069 1373.968383 1556.634088 1748.649873 1949.991209 2160.536111 2380.048601 2608.175623 2844.463884 3088.404785 3339.513339 3597.439670 3862.098262 4133.782951 4413.227627 4701.619498 5000.823537 5315.307066 5660.906458 6071.776341 6569.336113 7151.315261 7842.659400 8633.590715 9467.437087 10414.058080 11568.497665 12835.327802 14053.506039 15527.680365 17787.461073 19900.178212 20973.606847 21538.468798 22073.950095 22660.347638 23268.600644 23903.886711 24590.776346 25250.044416 25893.552071 26625.291103 27275.946774 27720.091751 27992.743871 28039.299442 28009.804288 9692.625127 9860.921166 10389.938930 11047.658526 12109.004589 16447.823274 16438.071249 21481.000175 18582.205223 10844.607086 22133.631139 22663.837846 23402.999680 24472.818077 24525.082568 24089.134714 24895.130409 25190.019647 26739.150318 27251.714376 10674.251929 16699.871415 9944.462792 20085.139763 11724.168102 12922.811762 13820.170655 19909.221268 20659.287175 20024.703431 20987.267714 23632.734018 25154.280784 25626.090284 25185.461084 23234.134513 26082.925928 27252.284369 26702.189609 27252.596727 15143.610999 18591.126327 11278.171235 21180.517694 14458.065709 19190.560185 19227.824464 24970.678266 22113.246317 22924.212789 23652.995393 24239.033379 22744.303906 24537.801139 25670.511183 26167.787311 27291.098828 25963.127387 27578.621019 27319.366016 20453.307740 22181.905408 15886.021314 19119.109652 18632.555943 24410.447326 16982.738012 23007.326455 22170.109437 24656.851136 24437.158685 27865.771107 25373.045208 24846.620872 23798.955625 27410.558967 27466.805915 26037.425395 26591.002359 27204.271482 21463.671624 24428.536297 13669.283588 18131.374004 23788.694106 21759.559888 16860.678208 22724.995914 21745.866313 15404.067670 24510.105553 22567.175419 23780.653021 24505.836704 24397.400497 26075.021021 24493.003033 25081.172332 25073.893136 26559.030735 11313.727747 20166.406720 14053.051690 13974.104488 16248.640902 17972.531434 20886.306033 24850.096595 20883.491655 21170.138413 23366.415145 26386.057151 19906.759331 20739.958228 24570.181994 25374.301420 24576.654089 24877.091307 25009.132497 26152.453629 20598.604580 16005.806547 19804.428656 19630.879507 13056.119737 23781.015656 24486.785152 23761.535883 22607.124611 16573.518433 23921.640079 23895.768704 25755.004366 24756.950987 23886.323797 23594.140226 25182.254100 26764.624542 26748.063749 26339.158850 18701.900726 14150.672293 16231.096935 18006.727306 17981.289277 15483.682224 17512.653562 21195.539989 22375.209548 18370.400752 24630.687939 21247.330147 24690.424584 24629.684002 24654.258484 25351.325245 24694.096671 26220.499767 26529.097758 26711.590243 13522.642687 13539.346842 16026.194388 11325.461388 17824.897825 14120.559763 19482.755462 16741.470360 14910.603187 17448.893891 16580.141796 19394.848625 21681.762912 23933.942465 23609.901550 20670.164691 24793.590833 21058.877977 26527.366049 27169.683337 13319.489551 16669.032497 21300.607369 14493.152325 15307.595187 19858.464728 13171.912138 13516.684315 16519.834736 23951.783258 20603.265077 19404.933242 22147.128176 22564.416121 20941.426726 22412.770626 26684.152075 26739.574193 22669.403000 26721.994628 17794.887576 19155.602396 13642.592560 16533.323810 19042.292655 21775.993913 17092.587652 18297.569927 19284.081886 19835.675676 17440.437192 25186.491304 21049.369558 26696.103758 22848.880048 25376.322529 22162.435978 25343.067112 27097.956382 26442.486828 11325.925393 11573.895478 14385.299923 16836.130053 14064.155488 15964.405302 14657.890753 12619.326023 14758.342492 25060.947068 20660.634702 16173.928753 21839.881661 18747.810053 19795.546188 27024.691648 25052.826517 22679.969866 25944.321636 27427.125025 14483.396379 12252.157751 14734.088676 15009.846793 15860.767282 13432.140940 14865.999846 18549.338385 15463.015132 16729.048629 14162.941000 22677.448739 16979.860627 22685.054739 22968.958147 21573.013157 26131.693960 25965.758033 27636.077261 27245.862427 10256.196595 11859.283531 16052.143437 12020.935564 14272.363496 17230.550489 15456.816625 16946.943401 13518.196311 19503.774997 18818.176793 20333.579810 26156.422510 22663.638514 22979.405242 24129.054152 27589.093259 26979.138881 27004.042260 27769.779800 15218.306686 10556.315464 11943.000199 13100.346838 14548.849116 18365.680061 13803.925635 19799.666321 20021.056727 16868.085849 21618.122565 17911.932036 22762.677190 25252.591158 25000.294587 17632.224434 21403.930814 27688.767303 26078.619339 27942.635925 10679.020067 10106.187041 10157.808521 11542.882877 17195.026845 19926.140331 14021.146469 12527.648731 18293.882920 13310.812287 16896.939942 16593.575813 25249.596957 24158.950233 25964.404676 25028.163042 21553.009617 27357.775003 23959.684744 27609.658285 15955.722258 11449.219989 10161.950398 11590.547154 13987.707809 13416.041229 15422.610761 17275.574970 19422.732260 13960.593597 14329.475628 23136.142738 21011.648678 25055.438690 19276.737128 25185.182892 20566.950378 23909.960124 27351.446035 27491.941353 11354.231781 11014.646229 11245.260027 10425.779730 11241.549821 12267.815565 14296.407971 12700.243874 15079.187432 15195.649760 22755.681568 16051.248302 16575.499507 15472.501664 24039.387665 20963.561790 23615.666659 27169.874522 25699.519346 27657.541444 10155.147685 11072.344327 9833.653404 12427.474795 11079.813574 11070.848141 13461.343783 13660.519801 20904.751886 22722.403708 20437.402584 21307.939935 25729.896400 20054.613737 24831.942495 25305.506984 26453.060081 25284.912268 24235.070620 26122.627873 10889.917743 10907.371934 11004.952515 11506.237374 12568.984714 11919.845780 11666.068395 18545.594037 14632.541549 15747.793773 20527.767695 18116.277066 25616.113172 24106.324146 25613.684733 25247.329465 24632.821147 27275.968187 27687.314960 26881.219340 8037.317421 10892.891429 10961.597571 10139.464258 11434.311581 13168.744353 13562.514059 15072.527400 16246.147701 19502.630706 17811.347098 17808.323088 18503.432900 25185.229828 18234.467877 21595.578279 24429.101498 25111.489761 25164.964034 27490.469255 7411.089134 13271.512248 10498.546536 10712.656894 15505.341403 13071.199687 14572.888428 16820.894296 13495.298928 14052.405293 23937.898293 24838.297041 23823.423607 24098.285243 24799.688825 18835.246724 23965.639644 22575.020573 26734.059426 27218.003076 14065.597415 11349.838270 14244.911976 10439.829467 12437.219047 11272.892120 14866.699043 14238.769895 18405.920086 19014.481142 17739.693651 23748.945844 20045.388383 24400.651886 17398.685572 26499.068963 26803.144278 27111.742703 26188.767313 26422.554918 10702.619064 10248.452196 10981.409879 10431.122978 12629.447683 10969.297989 17052.408945 16131.702972 13394.455644 19885.107528 22276.863431 21656.712251 22776.286352 24645.239052 26178.792393 25657.963485 25695.896840 27420.004520 26158.232718 26602.414710 15099.391190 13770.067757 10726.321357 11017.823727 16358.833420 11741.113949 13166.783159 17127.617150 13007.078956 14991.362486 15779.271045 21581.254637 15947.472554 18425.359310 25182.208360 24129.493456 24798.572896 25080.156848 25921.057186 26353.265700 12411.122732 11023.223699 12133.713226 10725.569617 12778.003902 12772.647049 11356.220248 13738.169699 15136.517644 17914.886945 16701.725986 18513.042470 21958.426165 21949.689587 16718.164956 23329.478195 25002.199209 24988.080137 25599.127919 26595.132185 7943.475364 10512.601506 13510.800364 11613.075960 15420.488247 14756.612348 11604.847611 13418.229426 14603.350901 18745.521847 16531.877700 19118.814416 18048.544838 22047.454846 24849.302679 24445.830573 24804.965293 26364.400902 26257.891589 10624.567049 11131.522540 11191.843280 11103.281984 12416.174290 12882.398202 11859.214236 14456.642691 20353.096442 15970.220242 17947.090251 20749.602207 24524.095388 17389.382906 24794.790867 24860.428415 25264.918502 23979.563529 26646.343605 10841.338203 10965.182075 13287.524746 10968.995493 13611.203327 14429.355825 11688.639444 14440.886280 15407.278208 18891.098841 20754.145781 17860.207525 22900.084827 15278.266183 24550.934319 24577.892126 24830.623736 24595.366800 26016.412256 9710.280962 12090.832414 11981.530808 10980.849219 12689.393436 12044.193565 15551.997428 17744.007335 17396.230316 18223.797575 18020.100565 17083.404432 19786.073592 20674.087390 21643.350008 21307.846670 23538.337813 24116.423108 25210.561223 11149.609838 11263.999832 13191.566809 11918.728262 10634.624614 11362.071330 14420.905665 15498.393499 12248.445449 13355.475879 17782.121456 14998.938522 20468.749763 19748.813651 18851.278915 24592.985093 24664.357398 24309.579684 11677.687887 11519.071640 11719.380308 11290.209383 14153.827290 13229.471964 14712.158109 14142.551501 18276.256897 17038.141118 15540.715676 21375.402728 19407.283216 22953.735826 24203.782133 23849.556610 23563.273367 23417.535977 13195.025906 11252.660655 11679.064891 14731.412184 11364.950489 15950.012904 11831.879667 15675.148556 15820.432568 18442.106034 18855.611766 21685.183692 19149.860063 23538.561729 19461.623975 24184.538500 24771.997602 12429.734738 10698.627273 10712.321505 11823.197028 13001.449081 13349.649678 20061.320010 12513.530654 12847.617877 18322.960486 16299.839981 22251.625695 26057.994376 22468.678921 19853.145873 23476.688917 23513.903708 12131.197688 11459.083681 12623.786357 11377.722492 19159.123896 22650.820347 16249.942017 15260.745721 15023.918427 22650.057529 16554.037357 23142.021583 22811.170225 24265.600664 21505.643263 21856.574487 22896.039190 22895.836601 9932.037244 12159.567638 19945.135091 10830.820865 10852.756607 11775.907124 12781.385159 16793.352237 21613.511214 20284.711325 22560.739883 20598.147214 22208.662558 22695.361500 23451.526022 22360.438786 11370.948004 11077.673440 13929.661389 12123.684245 12612.013070 17866.153970 14187.381175 20065.570020 19670.767768 13756.193147 21590.896173 22899.007916 23620.383572 21296.004870 16270.834189 21479.450676 12971.161867 11115.079749 12244.982729 14593.608511 22207.512968 19266.758756 18748.268791 17836.776653 18685.726178 14683.695658 18467.074038 22267.454616 21952.681992 23946.338894 23769.011018 21436.397872 13355.814620 11581.319883 12076.095619 17262.813531 13303.773360 13006.668606 20077.176752 13068.707228 13415.204022 20027.440456 19736.189733 22463.385710 23165.759252 22149.948157 20622.432983 10490.461985 10673.728960 12690.497404 11578.775458 15353.293924 12271.082246 14863.177675 16466.231623 21978.345806 22783.543463 19698.336550 24078.535505 21080.071349 18494.976797 20152.341903 10394.915723 11640.030690 11028.121844 11122.347261 14585.748865 15182.415472 11489.191951 17513.779610 23166.162106 15638.345831 24150.617788 16581.047003 22556.054623 21435.220291 19818.848730 12570.954528 12931.110743 11512.241513 11342.050087 14559.762787 12552.907888 13657.405784 16476.916694 15214.970595 14513.111579 22627.467127 22434.803188 21743.337296 19639.053313 12249.441227 12867.952963 12690.649676 18032.384911 19483.067058 14337.499285 12305.005241 15911.810627 19754.107432 21072.228810 20491.707196 17485.938154 20250.991798 19309.728993 12049.203771 7782.589668 12780.388327 13454.538972 19487.830796 12174.657699 19983.033388 17830.455115 13462.408580 15095.736891 21366.585622 21823.019205 16810.559161 18756.721135 8172.837990 16221.550911 10777.682791 15616.909129 19046.915138 16837.288256 22708.893364 15544.959466 21034.041012 19435.474366 21306.865611 18046.392408 17727.977545 15195.282655 13352.974422 13064.333496 17382.126099 12484.396144 18952.094735 11604.561711 19831.943158 20235.770892 22460.593409 21022.637814 21428.871255 17366.971365 11168.013329 13950.927667 20544.363700 14262.016596 17278.860292 17775.296724 17683.011680 13008.018723 20123.909763 19699.969537 20701.676065 16711.195597 17088.290059 13301.135423 12819.161526 13345.515734 14691.007188 12271.316996 16785.808990 13388.403827 16677.579601 19831.194963 16293.483552 15430.913562 17355.725771 10132.480363 9768.140346 12943.816444 11347.561508 12372.175105 14006.249965 16371.417673 21820.724741 16296.202442 20111.547166 18765.176905 15830.985379 13011.531706 12253.236827 12085.339268 18644.196458 10938.893771 17904.322566 19662.791103 15780.627059 18975.055520 20043.149236 18968.995908 15828.629582 15830.202608 5642.502354 15101.664821 14518.526176 16791.356704 14991.171823 13550.522054 14918.708591 23483.266768 18251.197844 17260.461908 20398.442574 14937.659252 7962.568245 10370.865380 12477.747525 19461.681443 17911.975492 16014.420255 12015.758624 23351.860906 12943.084980 15308.353623 8876.088511 12604.936241 13067.785013 12609.126110 8335.450667 17620.952666 15589.329893 19930.883240 15114.699696 18902.638353 15275.043687 9459.682589 15773.786523 11480.641237 13963.700611 14533.810922 12077.633944 14700.082337 18695.847337 16121.681462 14816.810358 13274.596736 14453.961257 11270.761036 16342.364680 15154.809067 15695.263399 17771.591433 21470.253459 22198.279687 18048.692744 1101.346154 9376.607906 12223.375881 14271.569980 12700.924318 17283.997974 12456.319176 21220.308038 19004.362432 14272.813083 2471.396056 13178.218409 13457.465320 13240.514525 17891.385548 14952.765134 17540.342855 18082.391186 14016.879435 9209.282241 8444.871677 14563.190515 13362.495836 13404.077704 18118.304092 15415.132404 13985.264237 14073.518672 8699.830168 9797.082079 13491.858965 15114.713888 18340.679146 15194.729670 20447.038309 19173.715756 12916.964120 9422.373852 13042.855149 12526.249493 12899.991528 14782.651065 13380.455867 14822.658765 21993.562277 9043.572300 6796.870772 8045.734749 13214.521683 17883.954574 13795.487793 10747.617446 14889.387723 2147.033481 13297.131162 13105.862994 13305.551917 13228.378623 13450.255067 18111.458118 12882.298079 6498.382656 9116.439938 13028.952733 15020.191257 15834.797907 17521.022102 13107.190991 9536.951589 11540.034362 10607.352262 12134.816578 16996.889514 13488.858200 11372.525916 12434.377783 8546.515504 15151.185250 7702.731076 14819.876303 15074.030508 11295.671482 11287.110055 9108.534444 13075.650902 16266.908635 10450.665021 10798.773219 15749.328337 1060.924679 10699.186832 13774.731676 16441.331168 13334.564351 17806.034215 7535.361887 15025.357657 11971.602125 12880.252320 13162.658869 10700.289688 1273.619517 13173.299926 12308.431806 15253.901315 10579.116386 8764.203826 14412.547213 14883.650600 12788.666310 16028.127712 6105.833055 10651.261330 9863.389645 7803.217855 10129.936717 9643.946390 8735.697454 9959.255957 13092.747685 10943.031658 2045.977733 9383.350903 11361.965912 1350.173356 8795.017256 8777.918085 9120.318172 12531.701303 11610.391643 12998.389142 8834.981025 12125.001417 4553.848950 7625.896519 4876.534768 10967.267169 7485.098833 7876.991430 14989.821145 5609.034689 7310.259513 11780.779138 6577.002090 13393.414039 3933.951137 4375.424076 8820.644690 10951.443449 11014.829186 10653.282523 10083.641455 10078.414278 10404.921474 11057.228853 10423.129707 11779.682024 5875.229069 11417.130043 7262.164815 7410.078559 12122.920315 10274.331869 12230.109472 10212.067338 11157.733707 11542.256004 11470.236429 13293.526768 13108.172399 10912.264041 18701.085806 13533.776164 10919.520280 11091.751661 11786.795141 11133.344812 13788.317941 9791.467101 11000.557010 13325.643043 17812.120655 12028.160469 19161.197616 20705.268041 11076.604769 11589.193047 10668.521618 10421.217040 11512.840583 12048.035473 10917.678954 10498.482368 10337.253551 10387.434010 10884.177429 11530.104772 16093.959434 10742.516876 10582.876209 18335.850223 19304.931746 14744.332973 11322.094983 10055.998595 12417.835409 14989.599560 10257.163826 10406.520989 11828.381812 10524.482696 11159.407036 12992.749207 13393.617362 16908.608512 14784.392887 11308.165045 12031.627481 10797.348233 17442.165755 12209.440361 22647.402472 10723.403326 10946.341285 10253.960700 11302.253082 10580.327044 10220.950943 13246.280840 11780.713706 15077.771024 12386.495658 11949.278382 11613.659940 15012.237994 15062.141979 11502.404574 10107.967365 10737.111741 10924.755297 10704.931555 10580.648616 10854.282489 10345.494659 13787.801611 11806.164436 13086.438287 13252.431461 12992.444171 12497.971171 14447.900269 18453.291587 9820.127506 10448.701808 10656.442099 12752.171188 12328.836404 11517.854601 12352.408122 11622.113586 14308.708629 11969.259303 11513.416270 11005.575061 12861.192092 12346.592736 18077.566659 10558.319124 10605.562373 10483.516263 12063.922752 10885.760673 11890.431832 13747.408240 11598.827057 12276.478001 15604.264849 11971.549624 12680.849470 12949.176530 12399.786640 12430.864604 10565.137252 10932.296316 11258.875015 11073.806057 11743.306768 13300.082830 12004.548308 12325.567529 10600.050420 11796.078012 13310.130392 14261.142703 14753.773866 18482.886125 15912.337652 11102.359931 10604.852179 10892.340863 10744.823070 11113.810793 11045.663804 10813.958532 12263.112068 15035.583848 15953.247653 12711.353847 11631.845946 12199.736211 11992.690520 16160.678962 10650.590660 10742.776504 11749.860808 11230.963192 10917.136956 13048.498657 11986.997653 15089.044026 11421.307789 10935.581035 11259.648825 14315.079248 14064.598307 11446.002944 12572.210310 10839.283084 10743.769767 10724.442614 11235.504807 11203.785206 10577.325073 11158.961682 12704.524165 10809.484339 10239.143073 10931.267285 13824.779052 11282.228109 10805.599386 11769.827875 10716.737352 11002.662598 10264.365674 10652.680932 10276.080547 11453.731164 12190.632314 11099.642709 12618.894176 2142.071344 12733.251595 10290.966500 10926.759356 13608.519426 11027.262160
</DataArray>
<DataArray type="Float64" Name="Velocity" NumberOfComponents="3" format="ascii">