<VTKFile type="PolyData">
<PolyData>
<Piece NumberOfPoints="2186" NumberOfVerts="2186" NumberOfLines="0" NumberOfStrips="0" NumberOfPolys="0">
<PointData>
<DataArray type="Float64" Name="Pressure" format="ascii">
 29838.979267 30058.399519 29872.886721 29723.969655 29313.349965 29731.944687 29983.835811 29899.528894 29869.586098 30188.153192 30718.512024 30715.699623 30247.208849 30015.023390 30633.924763 31038.505395 31045.148365 30750.040580 30832.537585 30578.348895 30436.251094 30346.393488 30636.711954 31008.975679 30707.854498 30254.361993 29791.353740 29913.054207 30072.914970 29990.995445 29716.432587 29626.218801 29785.303836 29972.216430 30214.767898 30440.384335 30662.701649 30953.048260 31073.451456 30937.308812 30645.577278 30636.313353 30969.096820 31186.546243 31112.282281 30900.725910 30820.419413 30780.960650 30696.355421 30639.166074 30704.480118 30582.160035 30198.010758 29938.201743 29821.223514 29824.696168 29885.936271 30025.180175 30134.705433 30128.545765 30102.033717 30063.383368 30108.988360 30278.921890 30504.201585 30726.178696 30889.552714 30955.511487 30861.152099 30645.711184 30510.789853 30580.944991 30744.886401 30886.846538 30932.758203 30925.392509 30861.633218 30715.636230 30646.842439 30573.180939 30330.323130 29978.302137 29789.822718 30254.361993 30118.361329 29886.574805 29130.066954 28067.027550 27247.275392 27220.854202 27271.109021 27065.074353 26684.947301 26526.276206 26227.415710 25285.497668 24101.637537 23021.173224 22481.939952 22515.194659 22344.106314 21627.718502 21026.386051 20945.653024 21220.493307 20840.956363 19902.230549 18282.483963 17204.165391 17081.694157 16900.255779 16785.773054 16724.626894 16761.973293 16271.206594 16590.444268 17020.184617 16540.072133 14076.576919 13207.463878 13948.935743 13597.327234 13795.338804 13376.067864 13149.268500 11822.698612 10583.188362 8977.110647 6772.997621 5960.943592 4934.119319 5053.846525 5227.421319 4945.207509 4931.711426 5865.749829 6491.834797 6111.109297 5399.097879 6228.870924 7668.320492 7727.770027 6931.948518 6773.377291 7129.400469 7532.221196 7722.962755 6862.526228 5513.203763 6498.202285 7540.217240 8627.362907 8093.010085 6148.014686 5633.631887 5698.938258 5212.909323 5072.786602 5993.153427 6940.900887 7351.124334 7670.373962 7820.910771 7701.091814 29938.201743 29858.048254 29676.947044 29197.003884 28464.191970 27824.802267 27519.750212 27288.561592 27017.268842 26648.037635 26315.197169 26051.517189 25439.532306 24552.151845 23633.336480 22971.194541 22733.750848 22686.285808 22189.893719 21447.411261 21337.002691 21540.176591 21270.331812 20292.075090 18937.587542 17879.733940 17399.364992 17128.963148 16850.412920 16768.336537 16549.565357 16101.994579 16089.420623 15995.343025 14927.043163 13648.431984 13205.831411 13239.601091 12869.046498 12492.664740 12492.383420 12127.339052 11345.300031 10279.798169 8647.650509 7556.601136 7020.533218 6839.360258 6840.781429 6785.764717 6578.992701 6523.475663 6720.611090 6682.851929 6244.418009 6111.958657 6799.949546 7366.951729 6782.928471 6022.743190 6149.989560 6441.048280 6820.788622 6787.378977 6141.952497 5953.025419 6505.439376 7080.009182 6996.748129 6515.972690 6366.760300 6453.512503 6303.975579 6094.816777 6215.466937 6584.051461 7042.861503 7482.502801 7711.317991 7822.559940 7924.519925 29789.822718 29672.249447 29457.262920 29133.827111 28676.552438 28202.632399 27777.033244 27386.452937 27000.513998 26570.025349 26108.167277 25651.329845 25123.143620 24512.877197 23936.643192 23519.086912 23244.450073 22967.187144 22461.566457 21808.508348 21358.073276 21153.239960 20844.669101 20150.289674 19232.038590 18424.084385 17897.643401 17553.540721 17211.552154 16866.967205 16460.420163 16032.109098 15748.344230 15492.453282 14858.718729 13928.205300 13110.327388 12555.099659 12149.731597 11775.030521 11539.786040 11279.384599 10782.489708 10079.341131 9208.461700 8439.254141 7961.810261 7752.051683 7655.276426 7543.376201 7353.945247 7131.015755 6972.948961 6861.726035 6691.786154 6535.239383 6573.957599 6698.648934 6555.188556 6158.092503 5929.809693 6001.635717 6190.313215 6275.655525 6130.923310 5969.479722 6098.369677 6469.134619 6739.973992 6747.454921 6662.444899 6666.841011 6727.622985 6747.500790 6765.938410 6849.870016 7015.333423 7259.750953 7531.468755 7784.721904 8000.171370 8079.664189 7701.091814 7511.793225 7101.075270 6721.557682 6379.360883 6105.452084 5788.978042 5497.230450 5248.860119 5077.720743 4991.714586 4881.789297 4729.178889 4539.355240 4321.517726 4082.249934 3826.952910 3560.288381 3286.329787 3008.650423 2730.343210 2453.836506 2180.073248 1904.450852 1619.637069 1461.792116 7924.519925 7755.821572 7556.274491 7235.659723 6831.071951 6470.722969 6186.106145 5914.428480 5637.004556 5389.706729 5195.653195 5064.189918 4947.725219 4809.568152 4639.291476 4441.170934 4220.588406 3982.506598 3731.385097 3471.178709 3205.390583 2937.144050 2669.250984 2404.271423 2144.652473 1893.538428 1661.198271 1506.012365 1439.312594 8079.664189 7992.638201 7814.776278 7571.954226 7245.382896 6862.105715 6508.488577 6213.961690 5940.742417 5671.849333 5429.871058 5236.389065 5088.749433 4957.139219 4810.342446 4636.830001 4437.270495 4215.688483 3976.714342 3724.738857 3463.720299 3197.193295 2928.352126 2660.197328 2395.856109 2139.451723 1898.529575 1688.236483 1530.487877 1450.317259 1426.126160 1461.792116 1345.250007 1156.026784 999.983172 865.858674 747.182117 641.756924 548.381145 466.114587 394.071924 331.375983 277.156661 230.561560 190.768068 156.993825 128.504810 104.620986 84.719695 68.237083 54.667859 43.563701 34.530613 27.225502 21.352234 16.657390 12.925895 9.976686 7.658519 5.846019 4.436016 3.344217 2.502220 1.854873 1.357976 0.976288 0.681841 0.452497 0.270759 0.122766 -0.002520 -0.113996 -0.218958 -0.323553 -0.433141 -0.552590 -0.686518 -0.839493 -1.016201 -1.221586 -1.460977 -1.740195 -2.065650 -2.444436 -2.884406 -3.394260 -3.983608 -4.663042 -5.444194 -6.339792 -7.363699 -8.530952 -9.857782 -11.361624 -13.061106 -14.976031 -17.127329 -19.536999 -22.228021 -25.224263 -28.550352 -32.231541 -36.293554 -40.762432 -45.664359 -51.025507 -56.871879 -63.229180 -70.122706 -77.577276 -85.617208 -94.266333 -103.548075 -113.485573 -124.101842 -135.419970 -147.463312 -160.255660 -173.821341 -188.185189 -203.372334 -219.407747 -236.315492 -254.117755 -272.833994 -292.481553 -313.082242 -334.690081 -357.487949 -382.229662 -410.106393 -426.394801 1439.312594 1397.690657 1288.665405 1138.007274 994.570635 863.830140 746.182713 641.091396 547.842676 465.641459 393.645824 330.991234 276.810929 230.253111 190.495021 156.754014 128.295822 104.440247 84.564555 68.104894 54.556038 43.469782 34.452281 27.160622 21.298862 16.613780 12.890501 9.948151 7.635667 5.827840 4.421653 3.332950 2.493446 1.848097 1.352790 0.972365 0.678915 0.450360 0.269246 0.121751 -0.003135 -0.114282 -0.218967 -0.323320 -0.432689 -0.551929 -0.685650 -0.838413 -1.014896 -1.220039 -1.459165 -1.738091 -2.063224 -2.441651 -2.881226 -3.390642 -3.979507 -4.658410 -5.438982 -6.333947 -7.357168 -8.523680 -9.849714 -11.352705 -13.051283 -14.965251 -17.115543 -19.524161 -22.214092 -25.209207 -28.534140 -32.214151 -36.274971 -40.742649 -45.643376 -51.003331 -56.848524 -63.204663 -70.097049 -77.550503 -85.589339 -94.237386 -103.518063 -113.454500 -124.069704 -135.386753 -147.428994 -160.220213 -173.784736 -188.147401 -203.333344 -219.367517 -236.273869 -254.074099 -272.785937 -292.420880 -312.981330 -334.456230 -356.808634 -379.872099 -402.805233 -418.915947 -425.324138 1426.126160 1413.608455 1360.942042 1255.596608 1125.576074 990.785836 863.032493 746.315678 641.491132 548.299597 466.089561 394.064243 331.373625 277.155937 230.561338 190.768000 156.993804 128.504804 104.620984 84.719695 68.237083 54.667859 43.563701 34.530613 27.225502 21.352234 16.657390 12.925895 9.976686 7.658519 5.846019 4.436016 3.344217 2.502220 1.854873 1.357976 0.976288 0.681841 0.452497 0.270759 0.122766 -0.002520 -0.113996 -0.218958 -0.323553 -0.433141 -0.552590 -0.686518 -0.839493 -1.016201 -1.221586 -1.460977 -1.740195 -2.065650 -2.444436 -2.884406 -3.394260 -3.983608 -4.663042 -5.444194 -6.339792 -7.363699 -8.530952 -9.857782 -11.361624 -13.061106 -14.976031 -17.127329 -19.536999 -22.228021 -25.224263 -28.550352 -32.231541 -36.293554 -40.762432 -45.664359 -51.025507 -56.871879 -63.229180 -70.122706 -77.577276 -85.617208 -94.266333 -103.548075 -113.485573 -124.101842 -135.419970 -147.463311 -160.255657 -173.821331 -188.185158 -203.372235 -219.407425 -236.314446 -254.114358 -272.822962 -292.445725 -312.965892 -334.312088 -356.263549 -378.186503 -398.440269 -414.432642 -422.564022 -424.719347 -426.394801 -444.742500 -477.307614 -507.501523 -536.112469 -563.683283 -590.289623 -616.158962 -641.619813 -665.691971 -683.815508 -689.539613 -696.789573 -798.213287 -959.771125 -1015.188032 -1150.639783 -1168.780929 -1259.409817 -1475.879188 -1892.689947 -1256.780180 -220.745829 163.421700 1317.768194 1942.924415 2291.884638 2027.554024 1986.394585 2095.558167 2258.859827 2903.491003 4285.523627 5805.312052 7817.532202 9925.687151 11616.160411 13263.193733 14848.545317 16464.156659 17597.222836 18797.604396 21106.657836 23382.671385 24660.736482 25079.937181 25515.650978 26643.028620 28081.481559 29246.487079 29838.979267 -425.324138 -433.173931 -452.258722 -479.770429 -508.194451 -536.348534 -563.784293 -590.335021 -616.157459 -641.646639 -666.232337 -685.697569 -692.669432 -691.761576 -737.361814 -891.623105 -1037.355117 -1096.588392 -1139.702866 -1206.653251 -1324.219151 -1575.714175 -1647.185173 -1067.192050 -330.740163 504.075363 1417.303496 1874.322282 1952.854353 2062.272047 2277.416929 2599.209153 3181.334674 4271.959915 5781.360459 7626.857152 9631.548960 11468.622855 13243.453451 14980.130645 16505.648797 17903.598444 19380.133490 21053.039357 22838.484163 24088.043980 24758.365398 25614.322653 26769.582429 27911.817817 28952.653133 29608.229800 29791.353740 -424.719347 -427.535907 -437.538108 -456.863392 -481.574468 -508.790663 -536.509038 -563.799570 -590.308562 -616.132890 -641.655628 -666.398169 -686.355079 -694.409497 -691.802649 -708.871995 -795.038441 -932.196843 -1040.477241 -1106.628115 -1142.063387 -1204.506951 -1308.425877 -1285.329494 -900.604955 -252.085130 460.692767 1171.239883 1637.117382 1885.776760 2104.421437 2395.331378 2818.393873 3480.074046 4507.985188 5932.548132 7643.949061 9496.069218 11305.404761 13040.258567 14700.847158 16270.747585 17808.695566 19343.242308 20854.093534 22357.703693 23699.230962 24773.139479 25795.661017 26848.833841 27865.629498 28774.686096 29427.278728 29733.726783 29821.223514 2267.634954 3004.632923 8705.579686 4565.597028 11733.155165 9852.925506 11274.838939 17434.387685 14208.101999 7091.256037 17692.313080 20417.783341 21856.566271 25134.688172 25448.947821 23986.966064 25542.265336 25656.950983 27985.158559 29584.267397 8292.744698 14800.500426 4842.052343 16120.794847 8481.510726 10930.217534 10549.085586 14934.585303 16046.919620 18211.004074 18880.964058 24624.971665 25707.098090 26500.335781 25739.839600 24470.082283 27019.046033 29181.542036 29043.047249 29563.362657 13908.460695 11941.272896 8142.232561 17109.970037 9604.522498 16172.391980 16394.960838 28201.768064 21819.215855 20710.967060 23606.692000 23806.032595 22699.098690 25678.865947 27963.779731 28742.301288 27112.503008 26451.074215 29673.178781 28523.409843 18629.573909 22769.133176 13458.782774 19201.385302 17237.212773 25288.245464 15474.537283 20602.386959 21503.163707 24599.805362 25168.955821 28636.067211 27199.303113 26910.370651 26050.181127 28769.672167 29221.389928 28908.860463 29785.765286 29163.941557 18093.308712 26078.948207 13671.201669 14801.375533 23427.659545 19033.294090 18236.522515 20664.058325 21053.431702 16566.106602 26641.724031 23836.176240 22998.994637 27352.432760 25514.106685 26774.363564 26548.325333 27470.888510 28788.904118 29477.256569 9205.467477 18767.882725 11522.357286 13129.657778 12166.279762 16642.977071 19602.227815 26858.167635 21593.953274 21346.799154 22536.795544 27950.545182 20391.299209 21630.236626 27246.464822 27194.853469 26447.963100 28353.115594 27709.385271 29579.728818 21285.490846 14106.099878 19449.394810 15891.065933 13678.562065 18666.217637 24303.140836 22922.145496 22540.805931 19622.219368 25386.881010 24834.183969 25926.268606 26263.185482 23947.818384 25092.754466 27571.242627 28713.718785 29283.868230 29296.748379 19273.432517 17210.167263 13526.993877 18364.240175 17462.744597 19392.379920 13631.102484 16637.213397 20996.239083 19429.659016 27914.927486 24524.015271 25700.786780 26216.291027 26008.808506 28030.398524 25543.740557 28381.370892 28515.458968 29394.564913 14766.676769 11821.073928 16205.573970 10609.056943 19894.275879 14741.876153 20157.492845 14566.434454 17686.239903 21059.398007 17290.565133 21545.806083 20990.414281 24003.885262 24471.669916 22605.462568 27001.488805 23904.561453 29436.075739 29998.028747 11051.111043 18572.836476 24506.708424 7977.120813 16354.743238 21145.829424 15829.635268 16783.020603 17286.733068 26432.357036 24417.974174 21742.326982 23266.144983 22541.108088 20994.404333 25179.612823 28785.163137 28974.625932 25892.865315 30230.860626 16953.870568 21232.020324 15274.302149 16322.153057 22919.935666 22902.029745 17539.185894 21465.017890 21185.419901 19681.381179 22658.069586 25952.014595 21723.751211 27293.415095 23782.242515 27548.028453 23959.194409 29017.044369 29963.376295 28406.222764 7892.610080 6133.836336 11270.169765 16438.229360 13525.338877 15990.724955 11460.168386 12839.881048 19445.095151 26295.722307 23961.718459 23388.233079 27656.035440 21966.505622 22820.975990 28906.976256 29133.820075 26930.052396 27419.001445 29421.965413 10118.597123 9990.566377 12235.471330 14067.896624 19085.832693 15309.172180 13556.747359 21732.340010 23676.488876 17852.536629 17957.561017 24879.065915 20235.213447 25939.072986 25032.531613 24372.495392 27876.068117 28070.058259 29906.693345 29467.354686 7039.699843 8080.418515 15550.232708 8732.316832 13362.374463 19492.640161 15290.343591 18653.398845 18687.289940 22963.336048 19586.835480 26561.892740 29052.117096 26674.636364 28488.973086 24302.590342 28333.688437 27989.364794 28072.629660 30175.015760 4748.744379 7014.094362 9865.816125 10575.809558 13797.298103 19495.132105 16563.476534 23485.686326 19288.849169 20264.312944 24178.231183 21350.660799 27134.536119 26211.565619 27765.413163 25511.736116 24927.913994 29878.893180 27667.861471 30437.727510 8075.826598 7609.128421 6733.060219 7099.088690 17173.015971 21098.069831 13479.069615 11945.969474 21459.661543 16947.435772 21431.430089 21857.547813 29066.014257 27727.762513 28371.822805 27657.400665 22910.562442 29315.786795 26915.885640 30258.696187 5364.476968 7510.112738 8183.687117 7974.632706 9763.213355 8273.350683 18860.433565 22143.517604 19170.200771 20510.878341 17127.590853 23285.986359 23525.881536 26623.600221 18661.057271 26474.059384 27147.859661 27445.161459 29940.795643 29873.089476 6652.026010 6678.755968 4386.921293 7169.930667 9774.123484 10021.525422 10456.218360 13511.169030 15064.619007 16458.964946 25594.342307 23618.698989 23678.634483 22422.769164 24657.710782 25220.467113 26582.271145 29218.942135 29025.567359 30147.434126 13435.957768 6573.735472 7223.952429 10586.551656 6576.951445 9718.901816 8304.054796 11539.089753 22039.906910 24075.396234 25547.905844 22232.362883 28352.455697 25530.975476 28303.357472 28925.789310 30844.175047 27940.736760 28296.891889 28062.419764 6091.039074 4612.108180 7820.544221 5814.224079 7764.209740 6407.575221 7794.309745 17752.541719 17634.926019 14719.554765 21279.812086 19467.576483 26594.868977 27042.674348 28740.969344 30075.653541 28523.270763 30107.994096 30216.149235 28985.437205 7061.635123 7920.401135 6236.541541 6357.900066 7040.789985 9063.339111 12016.273922 12308.390029 11124.271440 19824.894244 23760.422711 20327.574658 25177.072696 27895.289807 26672.340670 26513.750576 25704.005793 28697.979734 28164.985637 30013.673857 5164.537498 3082.013659 6862.106061 6226.444813 7159.078963 8279.156468 12936.300108 14495.374223 12498.566697 14561.451352 24036.336729 24412.944665 24486.073525 24964.299795 27113.829893 23098.487876 26800.370155 27909.712410 30699.537707 30337.243894 7750.380439 7753.442442 9129.335213 6357.449682 8398.079118 7229.484343 10565.148220 9608.565805 17773.001972 19027.101645 16865.089104 25702.344338 22125.440189 26254.082740 20756.882644 28862.767214 29514.882662 29611.909611 29852.070863 30896.369584 9271.274938 7579.057974 7062.166328 6719.199944 7561.017348 7559.189415 13293.014677 11559.124334 8999.864813 23617.348383 20798.776390 25053.577635 25572.570625 25080.198835 27260.765170 28880.936421 29498.011743 29510.928486 29593.472146 30784.213636 9401.859515 8785.272573 5352.402642 6496.860662 12512.630275 11308.646297 9773.911805 13910.195693 14345.910408 16868.835375 16225.156694 22912.012498 18033.691303 19659.877263 26718.463214 24109.399537 30029.938748 27977.833190 27888.986130 29756.640922 8399.639302 7281.316370 6940.512629 5924.709210 11286.651567 11109.936056 12342.125047 12440.627190 14907.491430 16932.294692 16552.621689 17865.893207 24818.034331 24495.750676 18076.678605 27000.133283 24594.385754 27219.158561 27807.091594 30153.346729 10753.296462 5072.618681 8421.545376 6541.661133 12268.973926 11477.635151 9246.179933 15943.897860 14938.871661 18728.195673 16300.831394 20714.625630 16332.457492 23220.717761 25990.360439 27145.069548 25532.355566 29830.339508 29541.397276 7072.506620 6049.292735 7994.292492 7612.705851 7677.224167 10806.715813 9993.937944 14447.992000 16734.502794 17807.574739 19402.450431 23811.990193 22430.743866 21559.386913 25168.431126 27150.885060 26991.874689 26802.914489 28566.255290 6271.717408 6488.467660 8583.303748 7264.951199 9951.333180 8952.504566 9587.496072 10645.549435 13321.165088 15930.613375 20113.444010 15034.961683 22304.961566 20384.507811 23964.671109 25715.171823 26314.772714 25111.897425 27560.736331 6670.967146 8185.320483 6481.558321 7453.015189 9067.048394 13064.842222 13632.903062 10661.024504 15405.299955 15123.744881 16441.010633 21407.121081 19417.775860 22837.373699 24886.164929 22828.016295 24825.741246 25406.288011 27068.166621 7088.525289 5865.682641 9707.886601 8693.685896 7939.450841 7038.951113 13183.982122 11812.175821 13539.368853 11664.917999 16703.243306 17557.049192 16782.091398 21948.618038 18302.508330 22285.344775 23597.256017 27174.695461 6759.783260 6455.495343 7658.720394 9494.984155 9351.378338 8018.437275 12429.678987 10954.873041 15347.542639 14492.314213 14635.575250 18318.957260 19178.463015 20412.377172 22997.265158 22946.370421 26483.843164 27067.745511 7231.939857 7619.804286 7612.223997 9639.858510 9127.726262 12171.719851 8398.633302 12996.188983 17992.028587 15154.271881 15985.461633 18382.501557 18819.500579 21063.175281 22828.535188 20943.405002 26442.563109 7636.633277 6860.409938 7101.263181 9322.922409 13477.762545 10244.928384 18881.633386 10660.609324 9118.787181 16326.463568 17143.108778 19219.269141 23854.022465 23049.006265 26958.407982 25099.970710 26401.550029 8265.080846 7206.483005 6806.293868 7393.145441 12117.130969 17170.756544 16899.567719 10534.572623 12435.745967 19796.407947 17269.116841 18401.934466 22637.160967 25515.243196 20156.964791 23762.748200 26236.487404 26396.131394 5477.274011 7067.939471 14515.949155 8114.842548 9098.872805 7540.891264 13827.358429 18691.469498 19146.554205 20322.341584 19000.679309 21275.696763 21171.704124 20277.119585 21292.983277 24567.140209 7478.306564 6956.632263 10191.488120 8975.216555 10186.613617 13420.601293 12541.885664 17132.781449 13980.410056 10905.877299 19069.023168 19727.239133 19956.939121 22344.030233 18403.259532 23946.586338 7960.222142 8067.369760 6560.695350 8790.567807 15063.923320 14527.971573 14842.984228 16945.600325 11413.165122 15938.285023 19487.696622 17474.970153 21479.299242 23365.651475 23716.352615 22872.874417 13516.129514 7176.377039 6721.059902 10530.170818 8478.336601 9595.480510 15896.593938 7269.166279 10235.000580 14215.683678 15751.399859 20548.822365 19615.245323 21573.413741 21991.361057 8787.587966 7806.624976 8127.317960 8256.872974 12761.832731 7686.779192 7717.463768 12903.002573 13546.471749 18446.106958 20058.182207 21182.016762 19347.852708 12138.848511 22047.961826 5454.228272 7210.798720 7434.701912 6880.239595 11324.896121 13283.805238 7600.918985 11708.740904 14276.307742 11658.053201 19855.752712 13705.929557 21977.383159 16248.201215 21670.829403 6226.171239 8937.193578 7368.939613 8093.479451 11047.903050 8957.693685 10559.047237 15102.179384 13345.935546 9826.565963 20177.514092 20097.792830 21138.253032 21037.778361 7689.991823 8296.251064 9540.785911 10157.867169 12707.273904 11397.356068 11773.754723 12110.308577 14229.663898 14809.588898 18506.462380 17643.595977 20865.400198 20630.353596 8064.973164 11655.440039 8913.960865 8656.322118 12701.087974 10689.762624 14949.197485 13967.901809 10268.525196 13064.031375 18326.224746 16444.313640 15131.023607 20496.150121 2730.905739 14058.386504 7081.201965 9582.651458 15265.729825 12188.007633 14200.782542 16595.816006 17101.311149 15064.998807 15808.197188 20666.159386 19809.581498 12502.024688 3345.492018 9873.950010 12792.126603 7587.202824 13611.074053 10331.562359 13611.524609 15567.250585 15252.082024 16907.403066 20152.826837 19215.518813 5919.253176 10315.025410 14647.098542 9091.728296 12653.477837 13410.435692 13381.415672 11261.830215 15718.983745 14246.584238 16007.970948 16766.159790 18211.908118 5439.444724 9067.420086 8958.901772 11571.648158 9091.938974 14302.662379 10903.128093 16195.981084 17041.887367 16589.113638 16479.858315 17605.947558 7526.238760 6327.668223 10171.494048 8531.118208 10791.737382 10107.012393 12194.070701 16193.502103 14636.602030 16129.808345 16108.005754 16991.130797 5815.623590 10238.114294 9707.706250 10767.184481 8655.735906 10062.134720 15634.330525 12739.109947 16158.593881 17983.450967 15924.231484 16886.422216 16949.442081 7523.887132 4944.838996 12788.267913 9447.274083 9161.621338 12176.394741 10135.357960 16657.723001 15106.247729 13242.704914 16969.708747 5671.522099 11568.680719 4857.368080 13400.342782 12660.501779 9574.989143 10441.839339 8675.886906 17966.387422 12735.805931 16461.500326 3867.987494 9956.775417 9427.191481 11407.675834 12146.375951 11460.854547 10067.347976 15555.071795 16229.454230 14387.654076 16690.341917 4882.798609 6825.155497 3232.351700 8386.625014 10687.099759 10028.678852 10495.110003 12171.068668 10620.984728 16054.668275 4962.670052 4031.950921 3425.577157 8513.619368 7660.123537 7045.772127 14461.207577 14484.035183 13849.143470 16478.582865 5416.806773 3525.086034 4631.359340 4719.190343 6430.061741 10510.142191 13036.011881 15905.934572 15599.006786 16981.092216 4041.985931 6395.633701 9738.124254 5493.768344 13071.341230 12224.342646 12589.298599 13213.313300 15368.330030 7336.315722 14938.268029 3877.396943 3444.098857 3549.528720 10896.782136 13283.926410 12142.462358 13225.060092 6116.249539 3968.195750 6587.595000 4506.518820 10282.171830 11815.283858 11214.778764 13842.982487 13079.910913 5046.356241 9028.606151 8379.151779 5653.685316 7650.811182 4779.659544 16451.785099 15343.059678 2609.477309 3695.782592 4224.047182 5974.516199 12586.828203 5250.871962 7432.111267 14160.066424 6972.417152 8448.375589 8903.469484 3993.596952 6857.001655 4286.807455 15564.385566 13710.337697 186.523332 6134.323584 5546.508230 6280.966472 3876.226161 8408.526250 9234.050067 4703.127804 6653.211264 8171.521231 3611.181175 3844.002177 6680.669553 11440.809963 4537.493374 8992.635574 5446.066973 6208.866640 10135.677596 7476.520394 10185.415669 10981.960579 7814.461961 6702.618391 5191.533662 4328.042935 6417.790512 9256.318676 5113.563475 5441.159706 8083.952712 3303.832991 10393.197425 11027.214569 6466.492420 7105.329689 6731.091780 6983.516234 3824.876304 5771.569817 6389.306855 6715.295402 7452.036236 9012.481992 4329.529403 7722.497957 6832.908721 4308.146197 5872.780127 8585.275076 5500.645130 8156.044041 7038.882619 5871.236749 4133.625895 7327.614193 10046.364938 7250.192561 11154.352144 4867.514702 6845.826445 7801.867163 4493.212001 6628.060743 10139.348023 7239.907117 6244.732209 4115.088384 5510.052438 5585.707696 6625.281229 8750.442673 8135.242290 5855.144402 7401.252191 6412.293447 5417.505064 7475.643386 3989.257389 8172.991801 7885.270308 6226.455407 8398.509665 7493.378382 7979.817169 7895.719244 -1073.726359 -1125.874545 2879.797081 1057.043541 3460.685691 5357.853258 6655.513564 164.505277 6572.417688 5059.218551 1316.649250 7830.880035 2016.846503 1948.284647 10045.121773 4689.188675 10640.069896 5747.248017 11055.596669 10097.227287 8836.771313 12121.994042 7699.364386 8460.893581 14129.257398 12319.404477 7330.839037 10242.077483 7659.713187 9577.893979 7537.931619 3564.660929 5080.609436 11725.641672 15987.428279 12510.179061 15310.396452 17526.093649 6773.780578 12531.991758 7797.519568 8828.376304 10132.762305 11057.218133 8858.801766 6620.221970 4370.095036 2382.572830 7330.021337 8766.920927 14349.468999 7409.542773 5738.919053 15130.462355 18975.956590 12619.477345 7007.676780 4631.694056 13521.365307 13559.862901 2888.149108 6278.892726 6449.033873 7341.630842 9478.061264 8545.749685 10865.695643 14690.405678 12848.626242 10022.955706 10413.362358 7721.815438 12574.679331 9113.164180 19865.257324 6610.694931 6184.091026 5255.364728 7072.398307 4966.294575 5380.069932 9706.239530 6275.380242 10886.423629 11836.988344 13908.206613 8244.048131 14945.868092 15543.214118 11515.075737 6115.844055 4775.929630 5295.696301 4435.554270 5316.663730 6300.308888 4875.202603 15341.211371 7992.055520 15326.770166 9997.000752 11267.112730 12162.034025 13369.612050 17446.743273 6167.211133 4995.654174 4253.872012 9101.809017 6619.551916 8012.177086 9429.984853 7946.996492 13308.615225 11444.514417 6213.239586 9827.737735 9578.327550 16173.082923 19163.222576 4644.836681 4337.615349 4494.420528 6340.296547 5568.054095 6628.703892 9759.135202 5860.723181 8279.211341 14834.058697 12896.730782 13893.090787 7957.997978 11159.589503 9799.065720 3971.855464 6515.380669 4424.799875 4826.253670 7225.320619 12114.134544 11319.739533 10053.477354 3669.656237 8445.128525 15094.044902 13858.491276 10826.248414 17010.231797 17618.317741 5672.125384 4415.017972 6435.774288 5694.666829 5553.215102 5206.700338 4725.416074 9348.989360 13467.352816 11861.662605 7515.079041 9846.927180 11866.959138 8438.264877 16817.535780 4747.579220 3915.448371 7065.106394 5627.071803 4458.399840 11601.362237 7134.402987 14260.527507 6669.157976 5979.608332 6140.011650 12347.178015 11599.568693 8249.829427 9631.186757 4890.180788 5107.338115 5062.476798 6084.373726 5198.860921 5709.356410 5322.965245 6757.275136 6267.550558 8412.095524 4979.671710 8111.538066 6825.574132 5930.772385 9383.053225 3974.616213 4894.198464 8208.385118 8775.233366 8152.444333 5230.710827 6735.136026 6205.311748 13767.100141 3300.886845 8331.269284 6139.472316 7581.894879 7685.280418 7185.051466
</DataArray>
<DataArray type="Float64" Name="Velocity" NumberOfComponents="3" format="ascii">