<VTKFile type="PolyData">
<PolyData>
<Piece NumberOfPoints="2186" NumberOfVerts="2186" NumberOfLines="0" NumberOfStrips="0" NumberOfPolys="0">
<PointData>
<DataArray type="Float64" Name="Pressure" format="ascii">
 29780.380097 30048.285022 30427.429424 30835.010447 30908.274327 30446.865265 30718.408180 31547.160151 31966.266646 31663.335354 30917.856017 30736.390221 31137.214727 31493.006756 31418.093325 31094.518766 30998.561111 30962.349741 30607.382276 30173.049065 30029.176696 30009.966172 30058.637340 29885.824221 29582.299131 29358.798900 30149.662670 30012.294096 29932.193688 30047.714774 30169.582402 30212.914000 30277.984533 30625.554255 31225.806844 31536.469096 31323.601667 31088.771365 31179.664766 31461.052100 31639.339081 31706.780090 31561.728920 31220.990645 30977.078398 30856.056234 30598.490012 30382.705184 30412.025674 30329.201723 29937.778249 29532.409472 29195.228947 28958.323673 30213.108704 30215.366916 30171.195732 30051.502273 29946.700506 29892.033618 29915.152122 30064.799574 30370.145096 30759.837422 30986.926527 30979.241820 30988.208811 31095.841012 31173.592310 31218.943668 31259.150645 31247.389959 31138.227718 30995.248027 30834.365379 30587.816945 30377.087867 30263.426412 30041.667965 29661.189604 29273.867168 28916.197956 28715.621247 29358.798900 29065.072746 28545.610393 28452.936569 28583.788615 28700.828878 28120.228154 27760.048367 27161.871525 25961.783303 25696.442414 25515.323363 25158.666104 24488.408810 23859.466260 23198.758407 22742.037600 22707.300952 22633.242529 21696.017562 20143.464119 19310.094936 19075.687595 18820.659973 18738.452457 17998.021629 16216.177848 15437.931120 15354.254874 15359.657004 14849.486084 14043.651091 14218.713427 14205.392352 13582.477204 12379.242844 11521.590781 11468.320367 11592.897160 11614.567951 10777.240969 10346.518081 9935.793150 9730.278063 9803.115594 10400.391056 10086.726661 9028.223296 8281.839165 7498.275150 7033.290572 6757.019505 7294.947137 8492.522810 8779.292420 8771.072939 8692.697298 8694.467221 8713.174131 8941.610688 8918.686409 8274.640472 7178.120596 5816.905810 4847.973621 4773.368570 5280.681734 6444.773252 8896.552744 10015.087418 10625.545339 10353.937990 10964.075867 10955.410049 10901.363926 11289.418577 12007.532233 11958.639832 12077.201115 12109.082862 12062.214402 28958.323673 28847.198807 28520.533931 28220.311423 28220.273374 28367.194323 28074.791426 27443.327610 26862.383071 26099.778404 25666.480588 25703.576424 25498.239725 24802.933892 24138.630577 23640.535266 23274.387760 23058.662558 22814.060440 21982.502656 20637.816569 19786.391085 19545.059611 19247.499353 18921.073364 17991.177871 16663.621133 15955.917113 15660.748934 15448.725961 15035.873083 14489.159525 14101.617295 13519.931693 12728.737905 12244.482012 11730.798475 11250.285540 11249.786027 11120.880019 10626.704569 10173.659182 9803.583243 9756.001122 10058.193719 10183.994643 9767.093342 9335.450365 9030.143320 8477.128158 7889.110811 7645.689768 7867.066057 8250.724187 8233.244561 8028.938696 8070.935144 8097.665438 8124.071534 8333.795838 8420.969984 8164.839544 7607.403142 6946.764047 6579.537337 6498.907860 6756.209697 7734.321538 9298.341864 10380.750919 10860.537939 11127.561133 11083.575784 10920.394538 10906.866913 11173.324091 11742.549774 12211.080300 12322.968162 12343.115864 12361.756855 28715.621247 28603.060213 28381.431078 28168.099536 28069.335852 27992.445370 27760.838984 27333.948230 26832.073340 26357.959858 25964.614556 25696.254901 25374.001041 24826.827183 24192.304607 23674.421926 23251.743921 22880.621359 22550.109311 22027.480147 21244.077275 20529.638265 20017.128180 19566.728415 19031.783452 18290.291761 17402.588220 16622.426628 16014.906936 15492.416196 15000.279438 14512.391741 14008.899413 13482.990067 12946.045461 12506.864205 12121.190295 11672.356186 11294.097991 10994.110407 10657.646374 10262.183079 9867.355425 9613.646871 9610.736254 9728.496344 9691.214073 9439.897935 9113.216167 8749.186546 8347.661809 8008.109707 7817.708407 7759.265009 7721.255880 7618.496010 7530.794851 7486.660550 7433.384509 7437.771742 7560.662874 7728.795196 7825.618470 7776.758686 7616.702277 7465.097509 7470.273226 7848.487254 8700.459362 9784.011446 10681.695540 11178.486983 11283.346875 11169.971371 11109.753853 11276.263258 11675.863185 12134.945371 12438.516166 12539.823081 12526.461422 12499.653765 12062.214402 11589.035536 10527.135041 9517.529629 8587.390313 7807.693984 7053.956282 6478.846683 6050.648723 5763.086607 5596.790950 5413.694507 5193.783482 4935.606602 4646.644637 4333.451484 4002.648028 3660.807417 3314.063952 2967.799912 2626.446803 2293.229562 1969.324795 1649.486719 1326.017475 1149.748975 12361.756855 12115.190394 11621.342031 10755.741876 9724.862537 8760.620923 7967.425656 7287.421179 6707.758691 6256.344045 5924.835470 5699.888920 5509.710443 5305.428869 5069.864457 4804.555203 4514.010074 4203.714367 3879.559155 3547.337288 3212.370690 2879.299214 2552.019755 2233.738479 1927.184572 1635.587196 1369.849475 1193.782099 1117.687675 12499.653765 12390.602355 12115.785235 11561.065577 10715.582901 9728.951584 8790.267748 7994.525363 7321.508532 6755.017205 6306.266981 5972.656771 5727.190023 5519.873688 5305.809022 5066.506579 4799.445904 4507.659858 4196.279624 3871.128938 3538.008220 3202.272864 2868.635267 2541.190529 2223.754243 1920.870979 1640.547557 1398.836172 1218.842962 1127.172844 1099.165783 1149.748975 1034.029333 851.611047 707.728287 589.148119 488.433436 402.578798 329.680855 268.191069 216.708843 173.935370 138.670491 109.818293 86.391609 67.513157 52.413286 40.424963 30.976767 23.584583 17.842627 13.414258 10.022981 7.443908 5.495861 4.034222 2.944608 2.137345 1.542740 1.107082 0.789306 0.558263 0.390485 0.268405 0.178939 0.112367 0.061469 0.020855 -0.013551 -0.044902 -0.075725 -0.108151 -0.144091 -0.185374 -0.233854 -0.291505 -0.360502 -0.443289 -0.542650 -0.661778 -0.804340 -0.974553 -1.177251 -1.417967 -1.703011 -2.039553 -2.435714 -2.900647 -3.444629 -4.079147 -4.816983 -5.672292 -6.660672 -7.799226 -9.106607 -10.603042 -12.310345 -14.251895 -16.452587 -18.938749 -21.738029 -24.879232 -28.392128 -32.307202 -36.655384 -41.467721 -46.775032 -52.607537 -58.994467 -65.963696 -73.541387 -81.751697 -90.616559 -100.155576 -110.386065 -121.323271 -132.980794 -145.371238 -158.507106 -172.401918 -187.071540 -202.535661 -218.819375 -235.954862 -253.983453 -272.959358 -292.959702 -314.117214 -336.727920 -361.731867 -390.678066 -407.961393 1117.687675 1079.008326 974.857500 832.922750 702.025299 586.968460 487.346770 401.866214 329.125807 267.725974 216.310606 173.593938 138.379477 109.572281 86.185477 67.341982 52.272397 40.310010 30.883779 23.509999 17.783301 13.367455 9.986356 7.415478 5.473965 4.017490 2.931920 2.127798 1.535612 1.101800 0.785424 0.555434 0.388443 0.266950 0.177919 0.111669 0.061013 0.020581 -0.013685 -0.044922 -0.075649 -0.107990 -0.143848 -0.185047 -0.233437 -0.290990 -0.359876 -0.442536 -0.541752 -0.660714 -0.803085 -0.973078 -1.175524 -1.415952 -1.700670 -2.036843 -2.432587 -2.897052 -3.440510 -4.074445 -4.811636 -5.666233 -6.653833 -7.791536 -9.097993 -10.593432 -12.299667 -14.240079 -16.439567 -18.924464 -21.722426 -24.862267 -28.373766 -32.287423 -36.634180 -41.445103 -46.751026 -52.582187 -58.967835 -65.935859 -73.512437 -81.721736 -90.585692 -100.123909 -110.353693 -121.290271 -132.947212 -145.337079 -158.472321 -172.366394 -187.035078 -202.497935 -218.779806 -235.912209 -253.934459 -272.894277 -292.847529 -313.855797 -335.974166 -359.139487 -382.565579 -399.149423 -405.613802 1099.165783 1088.369038 1039.643664 940.769836 820.240144 698.253759 586.240649 487.543064 402.305970 329.597241 268.165438 216.700985 173.932960 138.669752 109.818066 86.391539 67.513136 52.413279 40.424961 30.976766 23.584583 17.842627 13.414258 10.022981 7.443908 5.495861 4.034222 2.944608 2.137345 1.542740 1.107082 0.789306 0.558263 0.390485 0.268405 0.178939 0.112367 0.061469 0.020855 -0.013551 -0.044902 -0.075725 -0.108151 -0.144091 -0.185374 -0.233854 -0.291505 -0.360502 -0.443289 -0.542650 -0.661778 -0.804340 -0.974553 -1.177251 -1.417967 -1.703011 -2.039553 -2.435714 -2.900647 -3.444629 -4.079147 -4.816983 -5.672292 -6.660672 -7.799226 -9.106607 -10.603042 -12.310345 -14.251895 -16.452587 -18.938749 -21.738029 -24.879232 -28.392128 -32.307202 -36.655384 -41.467721 -46.775032 -52.607537 -58.994467 -65.963696 -73.541387 -81.751697 -90.616559 -100.155576 -110.386065 -121.323271 -132.980793 -145.371235 -158.507096 -172.401886 -187.071434 -202.535317 -218.818253 -235.951206 -253.971544 -272.920566 -292.833370 -313.705654 -335.390904 -357.309168 -377.783761 -394.045550 -402.224829 -404.310078 -407.961393 -429.934466 -469.886174 -508.235520 -545.855158 -583.237268 -620.112831 -656.457944 -693.024612 -730.372337 -765.489662 -787.494892 -777.849493 -710.121140 -519.504510 -112.310502 -94.923576 -188.025830 -499.323926 -866.736970 -801.783187 -640.176383 -768.266442 -682.135708 -479.312105 289.183243 783.927138 1023.133908 1305.907619 2058.868486 2901.576944 3929.624707 5493.375875 7245.310261 9086.857025 10730.886237 12044.856261 13589.188848 15423.317357 17310.363805 18875.538208 20577.036386 21837.202318 23499.952387 25383.841421 26858.214964 28273.139511 29340.265483 29666.998247 29819.563857 29780.380097 -405.613802 -415.246345 -438.562548 -472.705964 -508.983834 -546.079988 -583.323256 -620.149486 -656.420539 -692.953480 -730.746249 -767.483323 -793.492831 -792.356220 -745.211547 -621.818230 -399.697416 -217.094293 -350.208893 -738.386702 -956.374135 -921.918477 -746.349425 -678.376502 -591.216277 -192.987059 360.123897 780.982543 1156.820077 1570.866934 2149.492555 2952.092467 3991.777079 5384.531045 7115.041014 8828.211544 10300.959136 11764.312631 13390.493881 15079.341768 16882.622579 18604.038080 20097.583747 21395.090751 22667.010652 24331.615764 26324.577036 27865.885452 28693.833740 29104.765719 29444.323050 29855.104371 30149.662670 -404.310078 -407.824172 -420.124598 -443.927458 -474.842486 -509.726434 -546.311811 -583.367192 -620.119407 -656.394571 -693.048514 -731.157238 -768.622244 -796.909064 -802.612805 -773.858271 -702.096249 -598.548180 -559.471231 -695.035468 -896.320889 -1006.969858 -991.846813 -882.096520 -741.344448 -544.418977 -163.806168 323.036766 794.200352 1232.402113 1702.821318 2295.711867 3073.686164 4080.842863 5363.823608 6885.016568 8446.777351 9920.900934 11426.035549 13057.176878 14786.407229 16586.603298 18317.286477 19904.718076 21390.355660 22732.261711 24161.741105 25735.314975 27101.851590 28092.256907 28831.688255 29436.315929 29932.133113 30165.369430 30213.108704 3016.980921 3656.932761 7730.234382 4911.183332 12501.610967 10849.872728 11921.620617 21129.960723 15243.071374 7575.957863 20240.838390 22293.129592 23260.460812 26060.304519 26695.438978 25512.284459 27998.385360 28633.752794 29673.355342 30232.362924 7244.791219 16428.538329 5458.148986 18307.391626 10615.231276 12134.606999 10302.766310 16856.842562 17889.802881 19683.611652 23229.802108 25678.520643 27004.770187 27089.225354 26687.673554 26211.725947 29395.657423 30606.164853 29981.619050 30547.913949 15371.670630 11630.533294 7438.363817 18756.647276 10083.135730 20473.401534 16889.423438 28703.647421 23592.867177 21377.349576 24504.400365 24676.007591 23928.083851 27416.710423 29231.789848 30070.175881 28441.947277 27851.693919 30779.131883 29940.741949 19310.810562 23608.513193 13930.724107 20091.472371 17435.914604 25372.011647 17367.080574 22077.439583 23024.884039 26792.004282 24070.002407 29887.644158 28184.529055 28776.516829 27180.526645 29487.278696 30905.726639 29345.040876 30264.314350 30968.630051 18802.523973 25877.409807 13595.846312 15643.168724 24932.168547 19935.822927 19644.692803 21441.256135 22156.742219 18391.188583 28971.175361 24956.257650 24797.352286 28884.188698 27462.639151 28193.115617 27396.589684 29507.800085 29471.590073 30382.233530 9301.139856 21394.625902 11671.991982 13431.830579 12901.726398 17733.121228 20257.438558 29462.967213 22518.869743 23402.735650 22002.531380 30702.005682 22112.013229 22968.140077 28563.121709 29280.111506 27785.658955 29728.765647 30488.327635 30871.179684 22634.516691 16297.426129 20476.697606 16332.847123 13951.254898 21402.095972 25655.357980 25616.451536 24252.175199 20877.490416 27067.497515 26029.217738 26498.902427 28654.890241 24692.908581 26722.895784 28881.967688 29819.651375 31493.312011 31075.532926 19202.891660 19713.283766 14394.907131 19948.455262 20053.804809 21473.276652 15168.320640 17044.352469 22806.758424 21856.326824 28018.137006 25609.075608 27949.399565 27743.799790 27551.332610 28463.885246 28314.800051 30297.309385 28447.950091 31634.124963 16997.284539 11381.101012 16952.590820 10958.985516 19967.353507 15471.685591 21595.086555 16795.054647 18875.930860 23132.728562 18796.011234 23673.081917 21094.450673 24848.435353 26635.932775 24534.180292 27617.338107 24840.725343 31342.391397 30682.186546 12464.754708 18047.187054 23346.212859 8093.994186 16549.883179 22656.623837 17753.513868 18357.380574 18560.773913 25757.654055 24288.805679 22366.340483 25042.282005 23109.821856 21619.002664 26664.945243 28473.174121 29775.958005 26985.140460 30320.422684 17421.284165 21800.071225 16166.775115 15114.496814 21731.017503 23129.665847 17578.769829 23141.337800 21403.784027 21008.450224 22647.654773 27118.018452 23011.884239 27958.952946 23216.908870 28161.119296 25557.359923 28991.969431 30075.339371 28608.423710 9584.103045 8487.665684 12627.909859 16329.084712 14982.184152 16619.903403 12885.909559 13582.616184 21012.669904 25800.410902 24844.426305 24414.912317 28247.303228 22967.755035 24609.501787 28799.158632 28572.093140 27505.370383 28293.089915 30235.222716 11282.273246 12067.101715 14859.748578 15617.075609 19293.290438 16556.182297 13704.749662 21630.554494 24252.668643 17875.365806 18799.585520 25442.337456 21322.707082 25871.082598 26780.509165 24726.540648 28090.155517 29469.627964 30411.100878 30415.646016 6412.105132 9311.389541 17237.455008 10395.914605 15192.808006 19228.297705 15248.833674 19401.427203 19170.542770 24692.064372 19730.765672 26284.985980 28178.048113 26900.291491 27998.967675 26551.538091 29620.403301 28835.382150 29043.248030 30230.255642 15011.746237 7059.993747 11579.333653 12251.125005 15667.232562 20016.660966 18418.551580 23836.108413 20257.203224 21362.495167 23454.048760 21210.157930 26743.441990 27087.301807 26943.977976 24844.066864 25519.405323 30655.738031 28410.478101 30227.412413 9483.104059 6656.300402 6777.705510 8817.336758 16969.290563 21137.794976 15129.409789 13266.835326 21069.330091 19263.517777 21773.363220 22534.661251 28565.304585 27414.173014 27797.788711 27505.259868 22849.083092 28648.710161 27157.014518 30297.681158 5935.407165 7538.807509 7615.972529 9663.257655 11852.550546 9830.235230 20589.259266 22727.364282 18967.296608 20379.156943 16854.438872 23339.363746 24365.141540 26785.979483 18513.266922 26016.999477 27098.797204 28095.495637 30320.881865 30578.273026 4258.108893 4661.698383 4501.257912 6207.133720 11702.369360 12915.625128 12677.454219 15737.226886 17331.958782 17849.908980 25790.704254 24620.255678 24443.686314 23023.124040 25620.855264 24782.857896 27557.332778 29285.438012 28455.796264 30027.372971 3165.846499 4893.125436 5819.194053 10904.719809 8065.444708 10139.083756 10951.681807 13195.282005 21475.266659 24080.511340 25452.278283 22647.353354 28059.124232 26651.155515 28166.218663 28668.851511 29703.612291 28235.353391 27795.686953 28383.409354 5102.128339 4173.011586 6771.974336 7569.047283 9294.277958 8317.805813 9332.102709 18752.780843 18974.984070 15366.075590 22056.945333 20592.694822 26136.959124 27149.847093 27821.208301 28829.923082 28206.826495 29539.731416 29747.687110 29456.623384 5140.438447 3837.635775 7131.343818 6318.750928 8223.716661 10542.246125 12667.043697 12961.435786 12485.271449 20505.726790 23542.521127 21164.122203 25703.981972 27562.474209 26362.991007 26894.814177 25204.342854 27936.109989 27821.183277 29551.019963 -1036.726055 15446.160555 5723.684212 7583.056463 8911.744180 10047.488838 13155.324499 15114.063343 14830.475027 16441.026082 23361.566317 23348.919207 24397.731455 24763.308659 26996.740897 23591.602543 26275.562582 27042.302880 29864.681950 29745.868473 6575.609395 6668.916555 9580.550578 6582.746622 8711.781608 8323.541934 9372.268656 8866.016437 18384.336430 19304.180764 18552.403615 24419.812598 22876.036747 26320.335658 21007.353680 28281.361322 28698.211068 28644.274164 29300.041975 29849.270722 4392.707210 7099.696820 6383.853910 7513.588516 8562.751791 7074.431310 13922.619412 11569.371342 9996.929503 22800.421747 21143.131655 24414.990240 25946.276701 24862.790174 27257.909049 27540.970336 28745.414803 28802.838088 28136.545115 29628.216869 6501.630519 8205.685071 5354.119465 7380.958785 12071.826826 11915.712579 10783.965682 14999.660356 14019.747923 16089.998160 17407.643024 22551.116646 18297.108424 20963.234570 25881.618252 23028.854355 28811.727274 27841.753269 27257.368671 28580.790704 7765.568535 5974.693236 7520.767892 5758.234260 13823.826322 10669.748367 12095.681646 11329.191189 14920.526515 16494.289049 16500.234857 18290.209719 24034.045851 23572.313614 18541.582628 26817.924752 24104.047837 27202.312609 27755.469438 28953.672885 3929.509365 4600.939163 7509.626451 6314.883202 13407.219744 10991.906753 9734.990213 16225.489869 14401.965070 17210.457198 16464.013000 20132.071410 16799.523988 23439.208850 25746.384769 27109.050835 24711.966679 28977.369350 28461.206371 5425.980940 5051.060087 7867.233202 5859.784453 7218.628028 10123.920852 9174.908081 14968.017553 15555.395286 18258.964654 18952.258133 23382.172750 21876.074558 21137.651453 24357.090471 27547.949570 26649.613403 26630.818398 28322.730545 4789.580156 6026.850043 8793.592449 6037.517041 10878.288720 9514.012898 10235.233424 10252.092454 13881.460200 16365.480216 19819.433944 15634.899054 22338.973363 20364.212760 23532.949367 25141.613614 26192.926542 24977.881187 28475.547390 4718.967277 8171.779351 6177.777381 6587.108377 8289.475447 13718.828229 13678.972753 10867.868702 15687.933576 14708.785669 16444.043323 20929.959107 18816.203483 22496.523919 24053.963340 21938.769029 24362.387368 24927.976345 28325.259792 5316.840528 4789.631671 9101.528994 8690.396850 7266.317675 7240.365808 11221.228811 11669.641224 13443.810781 12339.249402 17668.150930 16772.362113 17559.566322 20668.473664 18059.167520 21832.794430 23321.746476 27595.774437 4613.148743 4956.182323 7681.629131 9316.375571 8352.304202 7330.080382 11795.568217 11323.810604 13877.523003 13617.626139 14707.572358 19117.317775 18974.017081 20066.737821 21720.666055 23022.336236 25660.014653 27390.866555 4673.967802 5646.076037 6421.807231 8930.804031 8417.399521 11614.906644 7261.012313 13387.584967 17866.559539 16087.643830 15014.604161 18972.878536 18925.091368 21762.480517 22301.841288 20682.234738 25766.408653 3748.248465 4947.545545 6377.461323 9152.142957 13660.094175 11084.553884 18208.757051 10290.393227 9260.438333 15795.739449 16822.745200 19093.134144 23209.967394 22876.557683 26654.531542 24805.724777 25660.146101 6591.641887 4937.213905 4835.756197 5290.130917 9090.141186 14298.873775 16095.189656 10110.805513 13042.688008 18935.956468 18185.031178 17368.994319 22211.922923 24759.552043 19722.079378 24114.152021 25320.760952 25560.365066 12879.030199 5317.799841 11722.328820 6279.166899 9042.147702 5727.607703 13934.124636 17541.088679 19430.826958 20881.109282 17884.178138 22445.688644 20416.411947 21008.412849 21589.978518 24511.482961 6582.728830 4791.574454 9397.147009 7879.055514 9006.280432 10140.836959 13350.538363 16744.606083 13256.354556 11088.828263 18780.748960 17462.244050 21052.633425 22961.699702 19779.349403 23874.399444 6544.923023 4114.426924 5117.777980 7360.344411 12165.228099 14901.789843 15375.407548 15928.578151 10845.859099 16297.142209 20559.545187 16064.642817 21929.510624 23274.247931 23438.720930 23437.804324 4082.594200 5392.517982 4723.184473 8650.265261 6873.789654 8085.587555 13780.916136 6010.067341 8241.102587 13471.700271 14554.480731 19788.382228 20305.951158 21146.118185 22691.450595 5246.866809 4346.967457 6427.758173 6859.434444 9499.827630 7048.755023 6704.927845 11479.839944 11572.882793 17893.509260 19258.202973 21747.087586 18222.853604 11327.605499 22106.187705 6606.975320 4963.285912 3968.587449 5056.196193 9341.313965 10291.259869 6003.601385 9941.504318 12799.182313 10194.434375 18785.990035 11161.185578 22511.266519 18041.018446 22176.725471 5094.305763 5457.214035 4519.817717 4699.952276 6969.231551 7601.050410 9551.404568 14134.482018 11953.624712 8525.989586 19303.186103 19867.444900 20961.151002 21811.784102 5150.632225 5670.627982 8040.375218 7919.113365 7759.431545 8174.569434 9695.472233 9949.231996 11520.302901 13427.407174 17985.424813 18802.713925 21253.924339 20397.279564 4371.304092 4316.894338 5800.243741 6732.052460 9341.467571 6509.111995 13072.833715 12035.637576 9397.044634 10699.496613 17466.356059 14347.919178 13293.384609 19669.009878 4982.174018 8267.122462 5370.290288 7138.151441 11956.202428 8804.032497 11132.838230 14765.172194 16057.820579 12275.895767 12376.566192 18790.538104 18999.561460 4717.381765 5492.122781 6542.709119 8525.778556 5622.348819 9362.140912 7127.842716 10636.557135 13478.772383 13211.549193 17135.124506 18695.156993 18394.306499 23051.403820 5561.308432 9658.866515 5419.405161 7606.248981 10851.642314 10521.592550 8647.636325 13837.178819 12228.470718 17211.541174 18421.935078 18592.552389 -4118.234782 4940.216553 5188.356317 9360.425745 4536.242246 9919.655646 7185.696113 15350.276430 14600.770932 15276.669725 15271.167693 16936.242335 7774.805359 4390.837452 4999.928099 4526.427772 7315.662269 5754.562656 9533.489259 14810.831424 14114.380943 16292.189552 15575.855049 16206.948521 8506.575802 4811.358645 4359.246624 5799.311664 5074.300341 6370.268903 12801.793646 8925.572379 13099.015844 16249.560078 14232.945108 15570.663878 15660.601565 10685.132866 4324.347222 6874.202325 5449.346848 6932.964492 9669.130597 8721.693111 14563.831444 10509.587010 11523.582319 15307.661188 -1453.263139 3660.049267 4146.946860 9954.486985 11123.566802 6549.877260 5750.562415 5798.238746 16397.372967 10296.938939 15087.501580 -8703.779233 3884.805172 4595.521481 4636.824236 3499.530259 9817.491127 8212.367030 12598.634115 13980.007573 12286.743822 14506.379201 22182.317436 3999.671169 6967.763604 4470.512106 6957.048379 7118.338506 6599.664845 9693.554841 7436.961954 13922.250927 587.731903 7431.085964 6224.515642 5612.285967 5557.339109 5140.464828 11154.623765 11913.679605 10977.220544 14042.221363 6355.527144 5468.115215 5718.506998 3631.398904 5595.256079 6457.508871 11989.469805 13534.980838 12107.889659 14337.257557 10281.485031 7073.910758 4763.300058 8381.635341 8562.095930 7579.281557 7986.327862 8967.217222 12801.509915 333.365875 4604.615808 5637.620921 7490.083771 6122.675396 7878.130764 11433.383046 9775.841222 11673.974249 2947.269259 4791.713690 8638.525411 6032.572197 8064.146568 8481.580216 10606.854312 10236.549625 11230.340507 12031.083757 4882.325648 7219.902022 5079.087657 8194.984634 6287.284741 11338.129645 12721.751751 14414.819751 3203.373231 2763.358399 4941.173099 6739.379513 6530.970114 9703.106806 11912.690465 12457.678211 6160.063089 4076.142067 6644.779620 -319.998318 7662.438815 11754.457443 11060.149156 1638.793004 4846.778913 6818.196791 6781.106908 4857.968371 6110.439119 5382.273021 9123.133905 -1750.723661 3457.355284 7982.047619 6753.024216 10200.731165 10198.085532 7881.919297 6380.951767 6354.757972 7863.138649 5798.676657 5873.093464 9742.223671 9781.695339 2208.284034 11297.158597 7739.099221 7023.563890 7148.004104 9524.930007 5828.736826 6414.880012 2919.018468 7136.178776 5055.213779 10146.088293 12526.254686 652.994568 10463.713524 6338.973360 6122.349324 9989.600573 8761.081616 2561.831862 1926.402985 6341.671920 7813.157379 9483.090025 10572.173612 5670.713393 3657.428559 6175.270693 10540.799705 7866.404805 4801.032424 8427.673264 6925.128093 16110.293576 10592.229719 2323.578358 7786.235908 6539.259307 11285.426944 5053.292178 6350.919400 8992.489537 7767.960448 2285.571113 7823.209920 7431.387463 3162.649053 7945.417446 8634.387343 13961.456116 11716.449685 9280.214726 15358.345365 4065.286611 8802.075086 18110.969516 8104.411996 8669.753551 8192.281114 17730.990124 8688.004921 3122.464544 7783.519625 6613.902996 184.220683 193.253746 -584.447989 -801.413611 1609.585780 4616.600148 5591.154705 -796.977827 5657.370874 6718.934927 -22.484715 6452.104430 910.569260 1188.818653 9407.365627 3693.483949 10679.943173 4402.776572 11638.116504 10235.158825 8552.215711 12174.808736 7930.129487 8784.250792 14985.844888 13052.131408 7187.211075 9977.083417 5107.334330 9719.155656 8977.360195 3021.706301 3857.137048 14095.174510 17132.610315 13196.178397 15292.160954 17410.245749 8578.437483 12832.581575 6494.973806 8395.616232 11507.905648 11019.814195 9535.058863 7447.597138 3697.345456 4935.189806 7444.486099 8527.216786 13114.444977 6554.674621 5213.303347 15067.655157 19003.585874 14137.551314 6549.187848 3147.055835 14976.389144 13859.554953 3618.325311 4182.014711 4781.175462 6779.705098 9179.062927 6848.746670 11511.123003 14538.518607 13266.002075 9021.732038 10810.509544 8814.438657 13443.684588 8466.596771 19782.093706 5206.634983 5531.699763 2257.058528 6318.861156 2863.894032 5816.683328 10032.421114 7163.339164 10696.206613 12707.870072 15372.047011 7836.064732 15890.545118 17442.043176 11374.883151 4238.167469 3735.590976 4421.791896 3609.918806 4589.718369 4876.902201 4964.590989 16878.097175 7866.695438 16546.148255 10304.687616 11916.550741 12872.323678 14689.547622 18454.420542 6078.515014 3275.900066 4868.831184 8985.320271 7600.274083 8977.701864 8765.915796 8479.167187 14424.159673 11445.941508 6313.564314 10501.054832 9429.639502 15627.777390 19795.687204 1085.755724 5661.934853 4182.901212 6355.980067 6937.429559 7517.670388 9717.239313 5220.726399 9799.210290 14987.688195 13729.640043 15370.385467 8846.796866 11469.324654 11282.003925 2846.259885 7330.875287 6635.336582 5723.026725 8602.844452 13081.714500 12407.864477 10556.004760 4397.543315 9589.087436 16954.889122 14152.479035 11661.089289 18010.256109 17136.890461 6782.390929 3606.389872 6469.254630 3628.368882 6328.829018 6287.267921 4825.599438 10798.283469 14778.853950 13853.838920 9269.694231 11240.328341 13048.914687 10775.449876 18162.731681 4678.130783 3390.202803 8447.798857 7700.661377 6249.421187 13545.416911 8215.583448 14262.157707 7583.736388 6214.591787 7570.403544 12289.933489 10536.679044 9335.659017 10363.757646 5951.106804 5807.818710 5827.831845 6249.648265 6662.575157 7908.876711 7123.039267 8327.261210 6810.635731 8024.022387 6897.361853 9621.861809 7263.851987 6664.066683 11279.520887 6547.737278 5978.885928 6371.860217 8673.909388 6868.322009 6651.820956 5539.400396 4451.213298 3386.058247 -7068.459118 4692.254083 6737.184312 3392.462621 5273.173323 7831.112109
</DataArray>
<DataArray type="Float64" Name="Velocity" NumberOfComponents="3" format="ascii">