<VTKFile type="PolyData">
<PolyData>
<Piece NumberOfPoints="2186" NumberOfVerts="2186" NumberOfLines="0" NumberOfStrips="0" NumberOfPolys="0">
<PointData>
<DataArray type="Float64" Name="Pressure" format="ascii">
 24948.568450 24718.225965 25041.709972 25629.185265 25333.811175 24933.594977 24487.651632 24569.636737 24891.992292 24898.071352 24879.421157 25145.039034 25343.870405 25241.246781 25278.099939 25366.132216 25349.058656 25174.627218 25324.547097 25132.983764 24735.063632 24249.168149 23774.535815 24086.139473 24230.305611 24187.919344 25042.658284 25056.017115 24784.136278 24576.886781 25018.325490 25584.004803 25592.813371 25205.680599 25091.763572 25210.293999 25302.585026 25615.768285 26208.768702 26329.176333 25842.413704 25331.789070 25321.435193 25774.603529 26248.785333 26250.283441 25903.084328 25335.556521 24774.355263 24372.445963 24252.390377 24333.903152 24426.934788 24408.072247 24956.619598 25013.528894 25161.957770 25292.275655 25317.071273 25415.805008 25565.208696 25503.040785 25416.495910 25480.596008 25496.195684 25435.600031 25553.534072 25793.467290 25803.363137 25621.610737 25578.739765 25770.703640 26040.872434 26115.217723 25896.402892 25633.417120 25448.494309 25243.200366 25081.554752 24983.829644 24854.450327 24647.375692 24513.893352 24187.919344 23837.174199 23544.514217 23442.682210 22975.886504 22407.063371 22002.219632 22065.290641 22235.996468 21806.402823 21192.005061 20795.517954 20617.533900 20355.037745 20273.628601 20326.847010 20395.750469 19879.665824 19456.500222 19141.857384 18833.615467 18454.106084 18101.460956 18018.582435 17850.188659 17606.783803 17304.783253 17164.181974 16904.623141 16457.763248 16141.091649 16048.638511 16050.890947 16127.978428 16124.485735 15906.001876 15301.483072 14734.470274 14277.187884 14237.970423 14106.316821 13817.973276 13390.105503 13272.059020 13209.325998 13018.729754 12860.764988 12686.558869 12404.352943 12059.979220 12080.845439 11951.558558 11462.737785 11265.896421 11161.711091 11067.790999 11005.283173 10822.854567 10730.471592 10466.296269 10134.836617 9632.491879 9379.134213 9310.454930 8994.207116 8649.585489 8263.612808 7971.216355 7955.544788 7895.343275 7821.230886 7499.866522 7068.303044 6628.884992 6018.562730 5542.557246 5064.250721 4510.024102 3776.370248 3102.900888 2798.365032 24408.072247 24147.946715 23630.032894 23436.147567 23324.925697 23009.785404 22722.823735 22580.686080 22404.242447 22028.792610 21583.072246 21148.530463 20849.743346 20563.824033 20451.756940 20407.645264 20358.966376 20224.622182 19927.163491 19385.824069 18962.823009 18761.482601 18507.028992 18135.906524 17796.549326 17525.809064 17305.373474 17199.209861 16954.813228 16567.199825 16245.362149 16110.335486 16165.529981 16284.500275 16272.807143 15954.438333 15373.956258 14826.730867 14450.372467 14185.290779 13916.277850 13622.081581 13362.736606 13244.272463 13165.492400 13080.805609 12959.188194 12851.030309 12649.443581 12364.786943 12152.392569 11873.711300 11488.016726 11219.593948 11082.432923 11031.798172 10953.646222 10800.496703 10591.466153 10372.217745 10072.269593 9700.876813 9434.331101 9253.864750 8992.711760 8595.577575 8306.507451 8194.165790 8098.883783 7971.214233 7760.932262 7367.789710 6808.741103 6275.501159 5808.831490 5290.561649 4725.672730 4125.265160 3549.614653 3067.336094 2878.954069 24513.893352 24396.848955 24105.779163 23862.781259 23637.596437 23314.551607 23002.984000 22777.960548 22493.602739 22145.227050 21841.637509 21576.061240 21277.378083 20952.861840 20686.255926 20519.594889 20372.668308 20249.867738 20082.236296 19831.869846 19581.699559 19324.358779 18984.908134 18521.411110 18054.187509 17683.361079 17425.766529 17251.160483 17057.017183 16821.767463 16565.163704 16345.067480 16231.207137 16213.296751 16171.518893 15966.355357 15596.927077 15185.503790 14827.915468 14496.406862 14169.612082 13849.075195 13539.492442 13296.412505 13143.003304 13032.613103 12923.622384 12827.691009 12722.938083 12558.758828 12324.897558 12029.076630 11684.224260 11377.987010 11191.360389 11091.861261 11011.669284 10906.378686 10748.477411 10537.683507 10275.961447 9971.206031 9674.572226 9421.180742 9174.460475 8892.201792 8617.827796 8418.543718 8278.417760 8131.334324 7912.046365 7568.692503 7097.241648 6561.652590 6030.827994 5512.876887 4987.089656 4448.463558 3916.611260 3427.197193 3051.855591 2928.571292 2798.365032 2562.371065 2210.186386 1949.767419 1779.073098 1637.607632 1489.691679 1374.322790 1285.724119 1224.824631 1186.799108 1157.015468 1134.104865 1112.720173 1093.267868 1075.697288 1059.782004 1045.258068 1031.864503 1019.356815 1007.509058 996.102695 984.881764 973.347904 960.770687 953.421496 2878.954069 2755.481170 2549.998124 2269.929620 2017.428427 1821.204586 1668.910839 1537.223365 1419.789068 1323.628938 1251.058707 1203.143215 1170.278530 1145.352041 1123.250252 1103.332495 1085.366692 1069.106755 1054.301574 1040.705649 1028.087490 1016.234695 1004.956386 994.084054 983.475801 973.054484 963.125930 956.403492 953.635873 2928.571292 2861.995087 2738.401872 2532.621837 2278.073537 2036.277529 1836.116806 1677.512413 1544.362021 1428.078153 1331.808432 1258.937900 1207.998737 1172.885883 1146.041709 1123.264480 1103.147228 1085.112267 1068.820362 1053.994307 1040.380897 1027.746465 1015.879705 1004.597288 993.757750 983.303515 973.384131 964.584733 957.929374 954.638929 953.719739 953.421496 945.432031 931.264091 917.994355 905.083056 892.144649 879.078175 865.854170 852.467489 838.922330 825.227379 811.394025 797.435553 783.366688 769.203278 754.962048 740.660419 726.316353 711.948247 697.574847 683.215190 668.888572 654.614531 640.412842 626.303538 612.306922 598.443606 584.734542 571.201067 557.864944 544.748409 531.874218 519.265690 506.946755 494.941999 483.276699 471.976871 461.069300 450.581579 440.542142 430.980289 421.926220 413.411055 405.466861 398.126673 391.424513 385.395411 380.075421 375.501639 371.712219 368.746390 366.644474 365.447900 365.199223 365.942143 367.721522 370.583410 374.575062 379.744967 386.142874 393.819821 402.828167 413.221628 425.055314 438.385769 453.271019 469.770614 487.945683 507.858985 529.574968 553.159826 578.681562 606.210053 635.817116 667.576574 701.564329 737.858427 776.539129 817.688983 861.392888 907.738164 956.814619 1008.714611 1063.533111 1121.367770 1182.318975 1246.489915 1313.986647 1384.918172 1459.396545 1537.537070 1619.458791 1705.285903 1795.152185 1889.215267 1987.703184 2091.069292 2200.497212 2320.143244 2456.800596 2537.651563 953.635873 950.332492 942.110681 930.191581 917.707223 905.002645 892.125943 879.078003 865.859474 852.474203 838.929137 825.233817 811.399902 797.440772 783.371189 769.207017 754.964993 740.662545 726.317639 711.948678 697.574409 683.213870 668.886360 654.611414 640.408810 626.298577 612.301018 598.436742 584.726701 571.192229 557.855086 544.737508 531.862247 519.252621 506.932558 494.926641 483.260148 471.959089 461.050251 450.561225 440.520442 430.957203 421.901705 413.385069 405.439359 398.097610 391.393844 385.363089 380.041399 375.465869 371.674654 368.706981 366.603171 365.404653 365.153981 365.894855 367.672136 370.531873 374.521321 379.688967 386.084560 393.759136 402.765053 413.156026 424.987163 438.315007 453.197582 469.694437 487.866698 507.777124 529.490158 553.071994 578.590632 606.115948 635.719754 667.475875 701.460206 737.750794 776.427898 817.574063 861.274186 907.615587 956.688070 1008.583993 1063.398326 1121.228718 1182.175555 1246.342022 1313.834168 1384.760969 1459.234400 1537.369505 1619.284484 1705.100782 1794.943186 1888.939872 1987.221908 2089.917425 2197.106625 2308.322160 2419.792426 2498.461974 2529.478497 953.719739 952.580303 948.356648 940.077225 929.392527 917.431521 904.910113 892.091680 879.061943 865.849196 852.465965 838.921863 825.227236 811.393981 797.435539 783.366684 769.203276 754.962048 740.660418 726.316353 711.948247 697.574847 683.215190 668.888572 654.614531 640.412842 626.303538 612.306922 598.443606 584.734542 571.201067 557.864944 544.748409 531.874218 519.265690 506.946755 494.941999 483.276699 471.976871 461.069300 450.581579 440.542142 430.980289 421.926220 413.411055 405.466861 398.126673 391.424513 385.395411 380.075421 375.501639 371.712219 368.746390 366.644474 365.447900 365.199223 365.942143 367.721522 370.583410 374.575062 379.744967 386.142874 393.819821 402.828167 413.221628 425.055314 438.385769 453.271019 469.770614 487.945683 507.858985 529.574968 553.159826 578.681562 606.210053 635.817116 667.576574 701.564329 737.858427 776.539129 817.688983 861.392888 907.738164 956.814619 1008.714611 1063.533111 1121.367769 1182.318971 1246.489902 1313.986602 1384.918027 1459.396072 1537.535525 1619.453747 1705.269438 1795.098438 1889.039800 1987.130329 2089.198116 2194.401948 2299.909483 2397.864343 2475.464062 2514.748304 2524.983880 2537.651563 2635.358025 2813.053659 2984.626853 3155.920336 3331.656878 3513.223955 3701.225603 3896.031096 4097.940920 4307.229702 4524.149784 4748.920948 4981.716252 5222.651089 5471.784213 5729.142707 5994.786389 6268.930211 6552.148136 6845.704777 7152.185640 7477.005593 7839.986502 8168.636020 8475.565725 8956.260300 9265.648442 9714.119534 10587.748217 11063.558711 11614.146828 12655.336116 13537.502806 14400.686153 14991.723944 15433.694863 16323.175476 17244.006686 18068.519718 18682.994950 19218.929789 19938.753532 20727.217587 21540.002802 22395.474805 23161.954343 23876.845541 24431.300974 24970.502255 24948.568450 2529.478497 2571.566548 2674.422336 2825.774716 2987.922695 3156.732672 3331.718775 3513.051862 3700.974841 3895.749143 4097.642656 4306.920451 4523.832461 4748.598243 4981.391076 5222.326093 5471.460284 5728.815536 5994.438334 6268.508481 6551.499565 6844.366708 7148.670626 7466.527952 7815.182496 8143.384489 8431.888853 8881.350017 9224.131454 9644.348561 10434.263175 10973.459356 11520.445823 12500.834336 13402.362765 14247.300046 14931.714813 15423.967746 16244.133555 17184.998760 18030.364239 18735.902600 19403.429765 20200.860578 21094.635811 21841.555621 22539.278337 23504.776221 24402.482383 24841.740251 24928.889377 24965.382319 25042.658284 2524.983880 2540.155406 2593.894083 2698.633822 2835.465411 2991.390443 3158.008783 3332.299598 3513.421877 3701.286554 3896.049867 4097.946699 4307.231473 4524.150296 4748.920994 4981.715892 5222.649735 5471.779669 5729.127640 5994.736605 6268.766175 6551.609247 6843.940448 7146.417228 7458.330813 7778.843442 8100.625058 8414.256631 8793.316642 9188.063922 9669.367223 10307.297856 10918.714789 11586.051812 12460.874123 13329.289874 14114.082152 14819.009346 15460.833514 16255.260024 17127.403537 17975.971831 18758.766935 19486.788396 20223.893965 20948.417600 21590.437046 22237.951544 22962.230465 23636.881548 24155.710294 24538.882377 24844.904308 24962.048530 24956.619598 11051.857554 11070.601494 13183.630066 13607.329599 14460.006001 15130.454112 15135.382119 18598.714486 16345.111846 14451.448971 19030.467877 19361.280123 20224.199745 21434.821102 21562.483399 20581.137052 22213.775041 22048.465551 23830.644252 24341.234875 13323.016905 16907.943957 13258.450603 17634.467998 15445.142043 14551.021175 15167.156993 17651.765483 18386.982692 18249.098716 18509.777684 21155.970193 20983.249622 21418.565239 20995.805439 20283.720426 22966.721866 22843.708695 24172.193761 24319.078464 15472.815401 17228.205484 13827.080268 18765.549033 15136.969221 17279.192551 17035.138917 21818.529472 19289.683398 19613.059405 20373.462339 20533.996797 19700.538177 21575.376622 21276.273500 22696.156885 23022.066582 21210.620117 24509.890631 22843.456340 18181.892815 19377.631127 15845.841305 16817.847665 17609.293832 21182.415067 16158.261988 19381.841846 19835.062189 21244.277990 21835.783540 24783.951258 20990.879340 21786.076927 21108.872530 22993.268593 24722.544097 22484.555637 23691.124668 24893.805349 18911.345952 21175.996812 16358.771429 16964.710657 21626.826818 18807.700086 16249.279718 20007.493021 19138.289259 16222.054225 22175.896636 20139.695771 20462.964897 21870.698482 21207.883418 21076.665757 21525.105277 22307.302922 22330.509270 24002.084896 13893.935305 18127.927651 15618.062150 15554.033567 16851.746909 17502.758691 18957.011153 22010.597098 18591.473256 18831.343186 20490.136403 23622.096575 18176.774524 18115.252788 22010.738932 22607.090817 21790.533785 23571.396714 22848.300569 23574.565646 18897.116030 16993.501143 18103.943225 18162.190870 15466.345781 20438.975586 21380.890027 20730.047216 20084.728274 17191.516032 21579.579888 21402.878574 21701.244882 22260.651301 20798.618779 21534.606982 22507.456234 24046.854810 24244.981614 24103.037900 18035.814870 15360.380971 16642.349879 18262.882873 17638.604039 16372.309125 16760.004389 18945.594587 19841.335979 17843.466680 21911.449768 20216.325640 21597.753531 21884.237560 22044.262329 22537.728985 22069.581792 22967.915887 21835.766861 24362.096256 15287.691200 14720.572480 16599.333828 13887.625638 18338.503679 16046.289351 18254.090602 16026.118879 16541.947314 17202.238670 16141.020543 18772.739329 19090.478597 20887.796477 21541.206504 19198.426419 21865.756661 20015.271625 24265.538186 23481.058867 15012.137044 15406.079085 19941.733841 15556.217135 16090.076865 17315.412397 14971.593535 14830.292947 17008.204659 21432.239454 19927.409735 19504.706995 21073.130830 19989.769140 19957.417838 20746.857207 21861.428918 23548.838853 20891.731233 23823.858154 17375.248789 18030.730563 15787.839090 17412.687292 17783.385322 20207.495479 16680.823298 16524.047039 19064.080435 19238.160740 17355.408987 22854.507610 18943.964062 22952.581610 20902.175119 22625.232667 20809.364255 21877.802957 23678.895681 22860.532958 13886.241722 13781.240082 15751.601638 16651.744004 15141.120987 16395.376669 15693.197785 14502.269048 15530.496795 22749.963724 20130.078456 15883.928671 20308.127413 19280.721491 18281.365520 22529.340361 22342.997020 20773.598636 21786.834868 24352.398417 15043.066121 14179.918561 14418.387364 17010.246403 16666.037373 14807.114701 15295.733363 16943.774620 16378.258677 16131.512240 14603.757667 21049.485235 15799.160016 20879.479582 21129.702682 20209.173667 22997.089938 23832.159567 25141.500046 24562.010252 12431.607000 13717.838741 16098.003862 13811.014787 15905.224162 17152.957696 15761.916983 16816.224461 14421.904269 19480.363060 18337.225529 19236.377486 23163.730283 20825.527283 20992.159609 21869.491623 25010.192016 24204.224352 22480.354607 24843.466198 17263.229486 13231.217064 13844.559961 14494.300986 16171.445699 17307.163235 15042.884931 18106.373894 18572.923118 17231.707444 20158.752065 17534.706068 20946.356146 22769.460679 22443.406071 17252.093705 20303.654042 24146.446931 23083.597115 24921.157129 13288.510130 12425.843684 12934.142500 13543.007570 16832.589819 18767.736127 14674.611590 14025.464826 17208.052777 14700.806745 17119.001766 16440.850354 22810.271969 21936.453889 23862.218917 22418.654042 20158.661190 23143.117574 21704.745478 24331.904256 17415.442782 12879.998152 12872.185789 13686.240440 15251.727825 14847.787018 15239.575013 17521.912908 17137.792418 16695.650983 15150.986067 21112.667369 19043.964474 22372.656360 17849.314665 22515.526365 19492.345601 21812.280174 24344.390860 24059.216450 11700.760975 11232.438578 13080.228233 13075.668207 13561.415546 13936.181435 15603.811113 14199.657837 15753.721881 15400.912103 21186.014160 16307.655193 16362.050350 16157.851210 22046.727199 19494.483759 21636.069768 24332.415205 22424.084079 24422.734923 9682.544836 13044.480724 12821.182686 13159.115837 13415.666086 13684.732876 14052.907316 14838.824310 19088.800000 20870.120842 18403.107163 19545.635898 24249.623525 19002.302319 22483.269279 22627.743903 24199.381723 21928.360152 21894.860274 23258.482563 12952.182423 11172.262342 12920.097284 13558.853318 14026.834834 13560.503597 13037.983423 19160.981359 16065.898116 15448.111085 19005.893264 17644.083673 24565.299407 21986.921558 23967.993943 23704.440088 24875.830360 24450.436286 24722.842799 24342.976565 8710.645515 11731.341257 13176.370042 12662.593206 13305.388423 13997.531030 14227.885968 14758.993827 15728.531676 18160.651207 16954.418872 16744.845622 18025.439042 23241.001931 18210.945619 19829.949113 21916.477526 22454.902434 23201.929544 24352.075385 11027.449488 12161.140391 12625.178265 13037.166468 16024.912053 13800.114939 14203.239794 15559.480443 14488.524891 14524.252860 21341.842208 24183.520331 21762.884211 21913.297254 22347.568520 18109.565274 22700.190674 21107.598831 24203.961147 24186.152067 14575.429046 12636.717026 15732.396634 12631.785228 13530.509369 12898.537495 15365.603195 14586.285467 18289.600327 18341.086001 17422.816604 21359.913897 18532.051875 23204.168829 15540.610918 23612.532216 22672.998066 24488.847078 24712.834753 24096.607451 12208.956935 12580.749154 13136.338923 13315.776958 14177.606382 12802.592825 16282.183115 15430.477283 14392.935850 18421.138152 20780.678858 19516.963448 20914.276992 22129.892669 23768.151313 24662.939961 23560.634885 23262.260064 23519.169461 24360.711453 15095.260093 13531.701412 13200.201884 13314.216242 14737.494962 13341.123525 13913.193855 16240.278201 13965.868620 15278.744161 14868.072436 20433.418771 15607.142568 16355.636822 23685.790318 23694.671535 24920.331873 22651.763460 22436.890298 23670.614971 13079.734667 13152.936026 13920.311527 12922.856423 13956.418012 13325.706338 13180.759963 14986.579172 14861.485032 18041.451832 17154.762711 17883.928775 22058.957451 20249.013774 16086.250919 22005.322377 23941.519830 22521.091881 24153.965755 24361.371657 8102.521605 13049.704469 14402.190319 13457.833823 15684.482467 16225.122576 13856.076011 14073.801947 14704.750966 17525.129539 15945.998738 18231.748210 17688.175023 19877.737656 23147.521539 21655.984745 23505.676001 22615.690572 23657.591422 13094.613958 13112.199361 13095.732539 12954.753465 13644.422127 14204.431696 13193.508451 15581.151565 18883.529669 15215.965578 16945.876785 19321.362660 22742.828111 16555.429575 23787.732211 24622.438397 24232.374872 21799.729145 23402.026432 11868.718132 13255.935809 13197.613080 12825.400399 14031.954038 14164.928926 13203.360358 14342.438447 16161.572968 17210.411620 19012.763626 16691.369708 20872.233148 15935.005122 21900.776055 24707.499640 22523.954397 23198.030304 22528.500160 12284.511226 12593.628792 13331.438014 12916.506272 13524.828846 13425.950389 17165.418461 16567.564826 15928.240142 19269.845437 18143.363801 16891.162837 18474.670452 19120.163729 20137.624447 19200.508829 21284.271621 21959.692952 21917.353555 11266.292165 13018.408898 13426.675161 14027.974905 12561.791982 12527.027082 14786.156103 14333.717611 13784.822984 14112.309657 17126.490388 13603.896233 19857.052055 18128.981408 18176.411358 23726.278219 21651.784959 21777.664041 11589.166199 11703.589608 12887.589331 13203.274454 13707.945433 13594.782691 14885.524173 13936.589569 18544.221189 16338.104624 16455.873739 20226.145723 19043.179632 21525.581236 21210.362764 21665.788749 21695.021694 22020.655311 8330.140243 12631.522403 11566.736330 14296.074941 13196.230758 16739.866037 13205.077033 16645.306952 14845.224931 17102.456694 19749.922657 20667.989832 18184.795736 21457.412908 17759.394479 22652.050969 23463.806902 9801.725570 11889.090508 12856.372607 13216.167262 13640.573515 14315.917637 19020.278845 13664.233489 14454.721455 17447.969282 15591.303672 19636.939618 22733.521915 20550.317206 18284.532566 20911.899241 21710.262558 11592.882025 11897.211545 13606.383865 11542.244541 19255.129297 20790.352412 16443.479132 17370.853372 15818.515303 23077.909479 16206.038485 21466.675128 20496.110071 22102.127557 20809.934418 20358.845294 20826.535160 20826.979872 14398.498404 13239.101667 18802.956295 13114.988824 13289.369826 13165.320367 13778.055211 16430.817133 19425.409534 20071.815148 21563.279283 19742.678590 21417.302282 20667.923858 20948.122792 20490.487667 13203.726082 11853.232861 14383.425138 13484.311073 13495.087022 18956.167213 14679.550639 18711.882293 20201.363775 14199.390913 20447.632350 20877.061958 22641.469280 20282.184929 15488.780511 19957.873537 12391.314643 11797.927800 11611.766085 15383.158432 22009.547040 19285.749848 18912.305459 16999.896981 18433.451653 15612.683309 17303.727737 21225.299226 20256.184657 21402.892641 23170.849486 20193.920654 12887.309821 10722.823497 11905.901807 18295.383441 14163.380609 14130.308709 19710.393391 13504.357831 13905.652735 20297.007362 18700.119857 21536.066308 21275.202149 22566.689816 20226.029070 11615.224612 11727.741301 12878.301407 11742.848856 15631.338540 13213.608425 14937.151138 17988.654792 20983.950793 20490.683707 19157.376428 22565.391065 20061.065024 16941.833602 19819.425795 12743.695775 7757.797032 12111.841376 11905.117737 14111.356397 16282.778535 12126.694390 17573.487864 21565.772103 16728.331718 22114.344987 17130.196708 20961.458343 20192.249325 19442.142283 9169.132410 12374.923991 11275.287809 12051.661795 14207.999144 14776.373081 15567.348675 17393.655898 15695.743748 16464.735727 21437.444618 21925.007624 20573.690044 19053.693039 14460.399680 11566.773452 13311.721968 19893.576980 17911.560699 15081.686494 11469.819318 17066.480681 17322.451723 21014.925664 20123.419271 16007.602064 20040.605602 18994.664659 12269.660540 9542.163641 13497.355654 13544.744968 19173.639893 12798.001253 20688.168805 16843.902144 14761.675980 14368.387383 19760.916341 19741.493751 17418.758868 18556.220584 11349.957166 17752.027301 11776.974159 15385.209086 17590.650753 17371.960913 21158.803079 16783.962958 18954.063405 18448.816947 21224.729366 18284.650462 18082.325572 17985.492977 13849.190707 13085.025459 16254.690549 11775.127055 17481.038782 12227.036659 18994.795874 19615.947122 21105.371494 20413.186524 20493.572044 17994.223274 13882.941240 15088.851879 20098.978163 14996.662044 17768.106508 20316.817609 18762.578829 11889.015275 20155.332630 18189.952367 19980.014952 17833.661275 17933.470817 15468.200386 13099.968743 13426.295483 18032.955442 11784.599940 18330.896660 13989.103744 17826.766964 18050.068288 18651.352774 16654.145971 17606.634823 12653.983808 13549.349775 14312.938827 12229.347672 10334.881635 14716.016160 16156.200009 20588.169337 15450.003145 19496.981879 17991.238089 17237.860652 13194.168962 12162.525182 11350.310626 19073.402274 11577.141449 19448.315641 19984.982759 17150.585139 18834.007536 19466.517784 18466.677302 17236.657833 17237.625166 7650.885530 16903.951277 15844.437722 18866.315995 14824.580389 14269.734242 16015.723014 21415.498933 20292.734746 18205.664067 20783.749158 16621.142741 8082.325653 13412.023458 14378.349347 19351.041257 19355.180259 18472.930966 7822.057175 20918.637852 14239.791061 16422.677024 11025.545347 12589.060889 12689.229449 13112.156879 7758.698312 18872.540557 16768.371468 19412.704268 16108.568742 18176.386487 16191.573972 12186.974882 17338.618245 13767.230645 15842.354290 16878.654701 11904.538740 16414.045844 18404.892764 18076.993609 15988.239435 13881.289085 15063.630085 12028.131296 17844.762142 17459.481064 17568.295710 16505.430029 20657.680758 20814.413072 18086.040885 1353.533615 9844.539496 7455.293351 17855.693296 14415.416792 17965.789610 14563.250558 20778.828366 18734.718510 15886.718917 5662.385210 16169.943127 15511.101147 14983.031535 18570.087064 16969.231478 18421.004705 18804.840736 15862.519038 11341.895687 11303.207533 15743.382597 12345.651445 15443.521853 19908.115169 16339.471736 13813.685283 15129.607816 11374.562048 11352.597549 16226.858839 16656.545281 20001.387544 19128.305066 19751.026550 18832.530766 14923.008737 12192.909090 15588.155397 15521.365774 16296.115285 14987.314008 16582.565573 15921.780777 20867.159992 6433.800539 11236.604059 10394.108572 14989.914032 19451.928120 16524.948632 13206.162993 16707.678123 4975.635277 15726.254504 14711.949717 16356.157140 13929.493748 14922.494042 19301.765565 14350.143448 10845.022371 7227.344701 15110.905804 15736.095604 16531.263463 18103.057763 14816.197996 11507.307437 13895.033884 12479.064624 12025.043044 18903.895041 15718.269977 13304.049691 13098.505510 12405.291710 18024.970994 7216.451911 16249.368757 17226.754088 13302.943862 13302.691017 8668.873974 15266.154065 17002.434393 14471.991519 12911.899359 17251.373072 1233.390942 13714.312320 16416.772128 19209.248471 14600.353201 18880.190321 12307.785072 17317.171726 14593.021676 14240.216398 14128.445839 12548.368060 1775.473198 15507.598009 14789.418266 18713.622252 12284.656608 10987.146452 16072.513169 14728.644637 14976.801949 18155.958654 7750.207257 12825.247869 12438.036489 10680.258576 11898.593707 12364.838975 12273.191614 12132.683762 14643.294197 11178.308855 7860.848918 11905.950404 14624.939708 1920.813185 12238.213409 11592.717440 11322.705471 13469.788958 14630.271580 15643.994273 11313.435596 14312.567893 7958.256183 11038.969110 12232.715507 14044.860888 11025.955851 12056.157023 17114.085791 8387.207086 10803.671043 15064.631955 10756.346094 15141.148260 9512.203979 9432.623211 12442.188299 15406.921201 13661.285928 14396.294126 12794.012123 13196.860380 13392.159811 14850.671979 12338.109259 15664.354242 8271.576146 14910.794493 9255.356958 9276.238908 14004.302067 11606.190655 14090.081574 13026.341767 13380.931030 13828.220923 14135.291413 14240.595014 15097.976073 13573.490547 17469.563183 15538.976288 13757.939847 13423.282153 14040.165637 14480.977287 14657.562974 11247.076392 13829.640150 15355.441845 16253.274381 13728.490980 17410.382770 18002.553328 15492.155964 14074.043219 13492.109937 11853.079109 14279.262310 14153.667324 13467.348959 13032.228955 11974.717169 10514.675282 13162.288274 13734.539853 17046.816996 12631.674489 13506.901046 17640.134117 17721.106868 16131.694041 13465.826473 13639.789419 14714.532924 15543.402434 12670.051161 13467.780759 15070.032747 13609.426685 13785.597773 14360.233422 14990.883630 16681.315381 15777.469052 13784.167972 13697.723552 13597.994528 16510.894228 14638.255926 19755.839264 13668.354309 13848.429824 13264.359752 13801.352414 13508.984090 13325.529464 14542.659495 13659.177296 16232.022459 14619.033196 14146.563766 14138.858951 15326.093233 16200.144831 13622.422330 13340.623561 13106.552885 13558.894673 13191.610950 13562.585958 13663.088914 13233.918255 15652.927744 14495.399709 14562.329120 15056.309436 14726.460354 14599.549864 14987.987799 17605.489832 12898.177667 13335.545759 13618.839561 14702.420720 13932.694311 13570.849834 14171.343872 14238.319196 16808.618094 14248.142833 13561.682590 13891.711999 14285.995488 14123.808173 18054.847955 13170.798873 13347.611023 13326.783787 13686.541783 13557.742098 13686.344374 15009.731471 13353.972882 14155.649045 17697.310430 14021.536032 14198.453436 15216.960515 14819.396955 14431.178821 13330.051110 13500.633388 13618.659416 13367.616565 14068.194939 15143.277487 13912.033450 14219.403639 13445.095474 13765.089979 14823.365670 15082.819458 15567.990088 18491.959067 17459.559326 14661.675278 13481.153238 13648.074630 13586.556847 13710.765359 13558.498027 13430.729274 14242.843859 15673.883789 17202.722022 14638.994617 13881.081232 14296.576607 13897.721353 16289.809748 13918.530843 13417.476415 13947.890459 13708.622470 13561.399815 14481.686036 13747.814578 15663.373839 13546.901565 13294.336244 13848.883650 14649.794696 15236.132110 14038.281957 14401.933980 13437.021978 13734.203052 13284.226026 13755.195895 13707.895354 13172.403705 13366.910289 13602.757935 13248.210969 13012.722613 13778.471790 14239.953926 13484.017950 13132.058502 14096.465056 13338.004266 13802.243538 13086.492699 13187.920055 13259.258105 13462.562450 14032.733710 11404.473114 12229.037426 4336.144596 11210.630969 12859.315167 11757.022300 15172.167955 13424.752063
</DataArray>
<DataArray type="Float64" Name="Velocity" NumberOfComponents="3" format="ascii">