<VTKFile type="PolyData">
<PolyData>
<Piece NumberOfPoints="2186" NumberOfVerts="2186" NumberOfLines="0" NumberOfStrips="0" NumberOfPolys="0">
<PointData>
<DataArray type="Float64" Name="Pressure" format="ascii">
 25742.390647 25451.161668 26015.250434 26018.124954 25878.397390 26155.329853 25790.012975 25856.792517 26299.292041 26218.653579 26212.541825 25818.143358 25782.466735 25610.731815 25621.348730 26149.256320 26558.985620 27164.212361 27687.880967 26867.751287 25989.990896 25908.614782 26319.817960 26391.494918 25949.222754 25505.712180 25874.236694 25862.531228 25775.300192 25825.323988 26204.919486 26474.435902 26567.484389 26684.394480 26879.287141 26946.596274 26899.689363 26962.252221 26861.158278 26464.890153 26104.208718 25935.407032 26151.560125 26601.632723 27296.869823 27942.671340 27937.934829 27385.627688 26906.044956 26792.979393 26749.583534 26340.326774 25720.311359 25482.101376 26034.318914 26003.633970 25992.116681 26044.488130 26045.541777 26112.637826 26141.699034 26079.149417 26141.097446 26212.041143 26224.578734 26315.160302 26461.304966 26659.067442 26805.166326 26892.589222 27013.234963 27089.457081 27212.764910 27340.878633 27245.882827 26988.986605 26665.491027 26314.493892 26020.303241 25770.564705 25530.088945 25346.911650 25292.073683 25505.712180 24896.468081 24176.908060 23785.292156 23820.346960 23651.024595 23596.595418 23511.614147 23255.849071 23035.135325 22402.914550 22021.153134 21571.901519 21228.863251 21174.737100 20914.727828 20561.369191 20673.488450 20444.623567 19981.374526 19586.347096 18831.628771 18345.755811 18139.949322 17976.497495 17539.928370 16907.635027 16734.609182 16671.993699 16588.181495 16256.291811 15860.292261 15479.250731 15303.377436 15148.248043 14715.381429 14192.753621 13778.991836 13729.552323 13590.770261 13442.749252 13005.497484 12542.442851 12400.667028 12264.403987 12016.359620 11723.305159 11646.373238 11542.299999 11345.690542 10830.896691 10402.470513 10265.186976 10231.919561 10090.728773 9864.023189 9612.653474 9191.909971 8746.735043 8395.951643 8091.953662 7689.877299 7452.210428 7121.037096 6903.046569 6621.986619 6309.436218 5926.918952 5401.646497 4789.071601 3912.831730 3251.880466 2847.369030 2824.032843 2794.390762 2746.878020 2711.880180 2638.746996 2486.556847 2244.006121 2101.010433 25482.101376 25274.245080 24752.362797 24343.639553 24122.719160 23830.819119 23696.856807 23852.054682 23729.248429 23123.504849 22483.605117 22176.873371 21861.597101 21596.590373 21508.567615 21435.522535 21192.813983 20995.278704 20800.948290 20377.104686 19768.090505 19185.327383 18716.323202 18303.388739 17982.345827 17553.893962 17029.536446 16850.161549 16797.168878 16708.697428 16494.288956 16118.420118 15712.223140 15370.523810 14967.387960 14538.699595 14215.371844 13936.320189 13756.928734 13608.499236 13289.066530 12818.991643 12443.546256 12270.335665 12110.230375 11925.735958 11736.799100 11639.086583 11531.326158 11204.522502 10769.959672 10447.856525 10269.599138 10161.818847 9977.092701 9659.256871 9266.617467 8904.969051 8522.156092 8126.294475 7774.743853 7490.462681 7212.505367 6940.780675 6714.353789 6403.082785 5983.805572 5574.491030 5099.736644 4414.109491 3675.432325 3192.630489 2978.921344 2869.076937 2791.201306 2721.423492 2646.474188 2539.453420 2386.606402 2216.488816 2142.375192 25292.073683 25241.253879 25016.340832 24752.181107 24446.240948 24104.841609 23846.672578 23774.207867 23643.023474 23178.823008 22684.484837 22340.163072 22011.953279 21712.957173 21488.283234 21294.257679 21089.223725 20826.146077 20573.992270 20323.472731 19988.135293 19623.636498 19213.626453 18762.091265 18325.051233 17854.009500 17382.690882 17082.083333 16954.249473 16825.088866 16597.392348 16251.960915 15875.637688 15557.559933 15242.102606 14870.779367 14484.537474 14125.843560 13796.059704 13496.844982 13180.588710 12814.274909 12468.184742 12225.069611 12069.607046 11927.524031 11765.067705 11610.213137 11448.250075 11211.655911 10912.913230 10631.834296 10401.773442 10207.461612 9999.939197 9719.983373 9369.629466 8995.820651 8623.127043 8250.295023 7891.347925 7571.597540 7294.248806 7044.063829 6794.803603 6502.974426 6135.835468 5712.365793 5247.868280 4717.494356 4139.536813 3616.040024 3238.162188 3004.907979 2863.093200 2764.704329 2677.798209 2581.489560 2464.333679 2329.569480 2209.589030 2167.040810 2101.010433 1967.538531 1751.212746 1585.768325 1480.666422 1399.412958 1313.430550 1244.437779 1191.478573 1159.533729 1148.660065 1144.176004 1141.056279 1135.395761 1128.119875 1119.631838 1110.134474 1099.770098 1088.655108 1076.888648 1064.551717 1051.692773 1038.272470 1023.905729 1007.876642 998.425742 2142.375192 2079.623782 1962.178065 1792.450502 1633.936906 1511.328027 1420.540797 1344.373652 1274.934610 1217.740435 1177.370264 1156.817060 1148.294231 1143.987100 1138.763503 1132.259592 1124.622374 1115.990169 1106.487164 1096.223514 1085.297149 1073.795320 1061.795989 1049.369562 1036.586593 1023.569842 1010.903133 1002.229150 998.621337 2167.040810 2136.283020 2070.871773 1952.660697 1798.833302 1648.254729 1523.732630 1428.288961 1350.254358 1281.631656 1225.129821 1185.250045 1162.267885 1151.257202 1144.872162 1138.905796 1132.178946 1124.454303 1115.768639 1106.219382 1095.910324 1084.939025 1073.396063 1061.370716 1048.969526 1036.372470 1023.993466 1012.773757 1004.178704 999.887957 998.676174 998.425742 988.250486 970.294735 953.620576 937.563036 921.650123 905.763269 889.867373 873.951856 858.012738 842.047531 826.053919 810.029585 793.972351 777.880403 761.752503 745.588190 729.387944 713.153320 696.887058 680.593160 664.276953 647.945122 631.605731 615.268225 598.943425 582.643505 566.381970 550.173622 534.034529 517.981983 502.034470 486.211628 470.534224 455.024112 439.704220 424.598519 409.732013 395.130724 380.821687 366.832948 353.193570 339.933636 327.084262 314.677614 302.746924 291.326509 280.451795 270.159337 260.486842 251.473191 243.158460 235.583936 228.792135 222.826811 217.732966 213.556852 210.345969 208.149060 207.016094 206.998248 208.147885 210.518521 214.164788 219.142397 225.508089 233.319592 242.635565 253.515551 266.019928 280.209858 296.147247 313.894714 333.515560 355.073761 378.633972 404.261548 432.022596 461.984044 494.213750 528.780632 565.754853 605.208030 647.213499 691.846623 739.185143 789.309594 842.303759 898.255182 957.255753 1019.402396 1084.798025 1153.553274 1225.790722 1301.657260 1381.363192 1465.311242 1554.516185 1652.463199 1764.894994 1831.653681 998.621337 994.428995 983.988058 968.913605 953.243864 937.451058 921.617141 905.754102 889.865482 873.952231 858.013870 842.048968 826.055526 810.031313 793.974171 777.882284 761.754408 745.590077 729.389762 713.155015 696.888571 680.594432 664.277920 647.945722 631.605900 615.267900 598.942543 582.642005 566.379793 550.170711 534.030826 517.977433 502.029020 486.205227 470.526820 455.015657 439.694665 424.587817 409.720116 395.117586 380.807261 366.817188 353.176428 339.915064 327.064213 314.656038 302.723771 291.301729 280.425336 270.131146 260.456866 251.441375 243.124749 235.548275 228.754467 222.787079 217.691115 213.512826 210.299713 208.100520 206.965215 206.944979 208.092176 210.460323 214.104056 219.079087 225.442161 233.251007 242.564288 253.441550 265.943172 280.130321 296.064904 313.809541 333.427535 354.982862 378.540177 404.164834 431.922937 461.881411 494.108106 528.671936 565.643054 605.093065 647.095294 691.725086 739.060167 789.181049 842.171487 898.118982 957.115334 1019.257226 1084.646844 1153.392510 1225.609309 1301.419634 1380.953203 1464.342560 1551.685883 1642.633182 1734.095333 1798.738098 1824.142921 998.676174 997.236475 991.878290 981.381408 967.892573 952.896311 937.339996 921.581656 905.742242 889.860916 873.949873 858.012130 842.047344 826.053862 810.029567 793.972346 777.880401 761.752502 745.588190 729.387944 713.153320 696.887058 680.593160 664.276953 647.945122 631.605731 615.268225 598.943425 582.643505 566.381970 550.173622 534.034529 517.981983 502.034470 486.211628 470.534224 455.024112 439.704220 424.598519 409.732013 395.130724 380.821687 366.832948 353.193570 339.933636 327.084262 314.677614 302.746924 291.326509 280.451795 270.159337 260.486842 251.473191 243.158460 235.583936 228.792135 222.826811 217.732966 213.556852 210.345969 208.149060 207.016094 206.998248 208.147885 210.518521 214.164788 219.142397 225.508089 233.319592 242.635565 253.515551 266.019928 280.209858 296.147247 313.894714 333.515560 355.073761 378.633972 404.261548 432.022596 461.984044 494.213750 528.780632 565.754853 605.208030 647.213499 691.846621 739.185140 789.309583 842.303722 898.255061 957.255359 1019.401111 1084.793832 1153.539586 1225.746045 1301.511418 1380.887113 1463.756384 1549.451907 1635.657550 1715.886858 1779.523628 1811.686142 1820.013575 1831.653681 1913.876630 2063.833013 2209.170263 2354.780379 2504.668342 2660.029832 2821.393488 2989.082213 3163.355948 3344.452549 3532.594882 3727.982331 3930.771261 4141.047000 4358.793361 4583.871717 4816.027415 5054.941879 5300.338949 5552.134630 5810.636190 6076.911589 6365.921689 6647.581256 6955.268583 7622.032998 8117.952864 8611.186055 9702.805479 10293.836513 10927.897445 12230.570972 13209.618479 14018.889015 14616.013533 15198.899315 16352.787618 17450.754962 18377.258106 19304.387619 20239.525503 20940.081238 21480.622811 22402.260436 23160.675036 24071.857359 23931.651157 24684.530191 25620.101777 25742.390647 1824.142921 1859.716940 1946.533776 2074.464491 2211.901372 2355.431070 2504.689817 2659.854662 2821.151964 2988.814259 3163.074000 3344.160846 3532.295618 3727.677845 3930.464968 4140.743702 4358.498841 4583.591281 4815.762858 5054.685778 5300.061364 5551.738638 5809.738989 6073.841355 6351.629205 6648.868332 6979.774374 7546.494137 8068.323318 8605.853485 9477.237146 10168.079902 10858.144056 11964.484275 12966.400565 13796.701349 14502.789413 15167.074348 16226.279119 17289.577387 18273.694064 19289.375861 20299.900484 21170.461943 21844.384771 22396.569722 22798.542598 23649.620826 24929.448959 25866.706711 25867.345232 25726.621225 25874.236694 1820.013575 1832.875340 1878.308091 1966.816688 2082.596783 2214.828266 2356.526350 2505.205307 2660.195075 2821.444340 2989.097865 3163.360766 3344.454032 3532.595336 3727.982464 3930.771270 4141.046879 4358.792858 4583.869857 4816.020724 5054.918222 5300.256308 5551.848639 5809.645967 6073.599077 6345.633975 6648.476188 7020.226927 7498.227027 8033.235954 8645.976763 9373.402069 10109.996914 10914.368471 11882.256124 12823.237439 13644.940450 14402.031753 15219.514192 16223.481946 17261.577354 18271.841258 19263.246940 20205.660209 21048.696016 21773.228267 22444.323434 23139.646387 23909.442199 24730.314764 25149.358592 25298.438230 25608.340513 25927.335345 26034.318914 10320.312136 10369.723491 12482.669162 13153.206477 14289.224687 14812.831795 14818.201287 19318.213260 16683.716712 13848.307460 20105.283479 20388.379021 21063.376161 22989.661035 23166.412835 21988.205415 23571.110762 23472.450546 23742.143773 24828.148844 12606.198646 17486.914168 12992.763067 18108.310754 15650.616515 14563.666108 14722.131908 18410.382338 18942.886762 18934.883758 19379.351081 21691.396693 24127.157216 22612.832973 24171.927872 20970.126431 23444.849855 22640.594509 24035.785766 24619.601162 15916.731216 17867.092275 13352.867544 19510.407662 14916.406180 17676.815609 17674.010407 22515.030421 20191.820327 20242.633952 21311.562508 21902.601208 20910.753165 22953.808728 22675.951845 22527.375161 22832.310670 22995.181350 24396.158967 22452.952892 19191.508479 20067.257106 15431.555959 17512.950874 18029.287580 22863.012312 15708.756281 20246.132825 20927.313398 22697.601773 22534.360154 24897.563064 23789.886601 22437.648019 22003.387476 22727.025764 24853.458978 22543.862038 24626.727255 24724.534275 20015.365722 22761.947723 16679.060097 17382.305979 21963.494464 19650.455114 16763.253405 20996.399949 20116.134875 16421.061940 22669.488570 21091.301691 21800.742793 22515.432901 22664.628909 22931.275064 23087.360418 21970.748554 22015.616248 24270.599999 13389.114169 19126.796519 14982.336250 14664.273301 16987.985815 17891.884825 19947.577638 22902.646235 19279.427934 20061.291935 21034.731768 22807.187253 18789.798754 19301.332757 23223.602985 23211.835436 23093.862420 22929.347645 21953.112295 24260.567515 20230.032558 16949.350397 18872.013145 19043.472712 15231.441523 21744.150837 22643.086335 21880.835989 21017.425143 16911.265256 22238.495138 22208.383638 23123.397062 21900.642077 21872.437740 22241.297278 23144.562433 25384.531080 24589.719836 24101.123529 18316.794602 14397.307170 16011.564522 18046.602540 17961.656216 15937.935099 17021.969411 20012.441882 21088.962412 17965.730059 22701.516717 20466.668562 22860.020408 23044.177216 22915.137185 23625.756478 22949.834203 22568.490951 23776.414693 25218.053883 15198.167191 14315.878232 16073.711475 13449.148726 18198.653962 15195.921143 18911.268552 15883.548026 16049.034405 17074.889711 16694.750753 19270.711976 20265.033491 21925.736140 21995.103393 19850.517218 22777.812673 20457.073761 25137.935615 25003.164004 14148.685324 15096.785889 20112.894960 15413.041716 15613.168338 17271.446503 14803.519356 14812.427593 16762.603129 22385.195389 20137.101413 19465.667981 20993.367357 21069.768843 20302.772107 21536.366477 23753.758468 23224.795698 21259.323358 24919.785168 17998.052655 18411.670351 14903.455450 17387.070464 18271.269738 20582.700073 16346.115272 16442.683930 18919.968708 19433.425071 17013.777596 22965.554281 19943.497361 23760.946413 22002.672927 23655.480293 21085.043625 23388.981640 25188.625643 23691.472667 13589.062218 13508.793019 14719.564801 17204.055754 14785.822755 16745.024866 15866.711370 13704.196816 15805.225842 23291.916014 20770.640756 16187.675610 20704.174938 19181.355709 18972.503812 24360.908592 22619.939532 21360.136958 23021.107186 24976.007874 14830.377957 14226.383413 15090.092281 16031.320261 15698.180362 14493.068474 15561.200070 17504.311005 16782.169734 16592.877004 14669.103706 21705.951236 15736.799883 21824.031053 21909.090208 20917.873946 23611.886647 24732.806521 25733.771936 25071.843279 12891.868125 13623.863726 15731.274329 13909.165418 15234.074408 17653.327051 16035.104647 17456.038811 14162.237148 19715.634723 18342.566743 19494.229991 24339.959217 21674.197002 21788.085032 22667.405173 25798.046871 25620.185348 24462.495395 25939.870458 17301.294339 13246.353662 13955.596189 14081.386271 15026.680141 17633.692994 14579.964350 18284.101940 18905.267892 16817.578150 20629.321064 17745.746391 21669.723340 23288.432303 23455.728502 17195.441308 20704.362082 26330.886631 23804.121487 25814.537181 12456.322630 12858.017408 13133.971162 13525.262847 16007.027342 19074.657909 14949.370258 14243.459616 17341.209063 14734.407185 17453.573216 16266.170595 22898.766728 22699.692008 24465.862665 22563.305681 20660.202347 24991.032163 22517.153858 25790.514493 17903.138379 13511.334389 13091.330977 13761.589447 15204.673410 14788.161183 14845.705494 17507.407780 17379.307339 15701.378024 15214.536871 21829.029705 19485.403991 23448.778347 18213.560665 23330.282244 19611.553193 22523.315300 26133.112233 26391.729726 12273.759480 12503.944576 12989.545687 13116.852960 13620.634371 14241.582066 15432.743953 14698.850816 16096.854781 15519.811556 21516.354227 16670.338646 16189.319106 16394.732391 22804.192657 19516.859832 22243.448312 26029.358271 24024.566563 26010.994874 10700.217835 12935.524352 12923.349588 13307.830105 13390.921807 13604.871226 14563.650530 14846.704998 18950.872623 20679.414933 18757.240364 19497.966239 25171.637185 19287.559609 23468.455150 23836.556823 25559.356798 23383.666793 22747.070859 24536.314192 12587.522810 12741.804266 12676.210923 13349.597017 14098.523439 13602.399416 12950.477546 19122.590307 15525.258211 15709.380527 19159.756589 17223.926939 22558.175559 22636.987867 24219.907272 23309.552328 23145.110843 24638.040929 25267.822498 25608.901612 10491.287402 12409.709190 13286.408562 12956.902262 13336.832386 14179.910478 14354.485863 15275.565845 16435.908426 18266.489982 17167.508840 16452.941253 18663.146525 23464.551328 18326.783147 20269.641906 22751.796117 23466.236868 23499.943742 24604.511659 9532.737283 12833.390801 12616.791605 13362.348429 15317.423677 14040.228055 15073.291615 16124.158810 14798.262623 14916.368454 21779.459216 23634.119627 22049.919757 22471.911724 23167.085652 18377.284501 22760.127960 21236.875220 25355.053218 25156.597937 15310.064409 12815.832612 15659.336203 13286.114381 14111.705834 13203.455158 15422.387480 14475.867021 18401.496395 18335.962279 17135.563766 21958.714841 18423.544377 23613.958282 15056.004331 23632.815037 24420.181350 25980.665781 24703.259568 25619.497972 11792.243041 13025.337747 12702.475903 13377.972744 14217.048897 13397.783606 17398.776195 15445.657976 14387.298242 18293.404634 20813.298359 19982.915065 21142.084842 22886.818890 24053.052534 22746.215625 23445.948971 25086.438074 23542.349355 25549.841091 16099.988149 14240.836923 12996.986199 13519.232446 15377.687621 13652.522508 13942.003962 16901.270380 14505.521953 15374.535968 15530.671118 20272.548224 16208.140562 15942.025219 23012.242376 23200.485530 22801.709345 23879.987775 24007.366348 23710.428367 13275.869484 12799.496037 13877.229868 12930.487439 14323.654380 13191.749486 13640.800594 15928.061546 15284.524944 18350.977753 17037.434868 18161.158422 22642.764325 20546.177230 16297.854284 22788.168588 23463.508643 23376.014481 24372.130464 25548.862175 8372.774958 13326.151190 14867.691143 13692.567919 15506.670456 15742.645642 13886.757742 14025.651375 14795.192339 17043.704886 15925.604988 18109.479875 18033.538406 19665.589626 23632.443899 23270.625279 23527.849523 24721.949806 23583.122502 13341.629125 12641.913550 12735.445118 12787.958430 14436.935279 14640.126409 13555.049331 16352.192098 19109.588296 15608.845539 17084.499644 19355.378701 23305.480892 16990.342188 23166.557000 23659.557323 23652.240868 22318.980972 23431.490870 12600.389747 12999.527773 13727.788181 12886.562331 14660.431953 14502.904651 12940.935584 15306.192838 16803.986408 17588.947751 18971.512973 17217.602444 21633.380055 16210.887620 22853.091984 23542.036579 23074.682953 23609.313858 23752.533770 10641.289277 13024.586661 13142.914430 12912.820894 14304.133652 13424.639910 17369.089327 16712.866608 16439.171744 19390.596917 17813.950158 17089.918882 18276.368178 19013.815191 20045.039217 19509.205405 22226.614301 22600.821916 23583.946425 12947.779332 12682.734420 13719.910532 14227.494132 13044.448131 13300.573061 14548.908847 15151.197863 14121.881914 15002.066856 17226.689588 14195.982865 20217.547687 18042.368023 18084.020545 23200.348461 23286.358704 23149.745986 11188.088860 13018.456299 13188.669343 13479.451835 14031.365627 13708.017488 15578.261080 15266.686692 18828.688845 16065.242951 17133.179843 20723.139057 19383.522449 22615.598347 22653.718726 23342.214505 22383.358447 22841.125205 11167.307880 13187.619872 12709.953355 15267.695599 13029.348283 17228.911589 13509.763752 16355.404525 15002.500656 17933.051894 20114.890627 21519.127985 18133.237009 22599.162973 17286.939139 23333.682401 23445.434964 11581.557275 12966.701915 13374.715265 13474.142613 14042.333219 14528.050830 19190.100899 13716.564544 14743.097311 18004.317619 15902.906298 20194.708651 23732.611439 21062.409558 18637.399501 21557.231699 22451.484884 12798.135818 12583.432824 14127.712795 12663.659232 19849.255121 21793.725611 16472.323500 17313.307133 16555.379267 23369.318395 16081.980199 22659.511432 21048.193754 23615.200236 21837.375269 20850.132683 22013.262268 22016.981175 12965.915441 13214.330869 19196.855103 13169.918833 13687.519625 13366.912557 14659.311501 16746.429275 19760.408965 20519.687695 21703.322557 19663.532965 23006.851921 21298.641339 22149.784268 20952.442135 13429.896571 12543.359026 15344.735786 13991.658375 13736.796485 18928.802107 15888.812139 18982.505196 20667.024243 14473.917247 20994.454086 21684.623371 22333.103697 20515.882509 16040.422351 20026.927494 11965.158931 11909.132923 11936.589460 15430.545863 22528.202636 19804.798771 19484.969957 17543.795506 19640.926942 16537.706031 17085.768553 22703.584310 20776.953249 21985.502755 23311.654688 20638.955061 13140.644166 12128.863075 12886.416908 18629.292628 14814.925269 14894.981093 20293.279696 14364.381326 14866.935436 20927.649473 18828.874841 23009.722757 21673.710894 22526.081747 20132.801283 10972.858041 12534.298555 13438.340713 12599.174157 16711.769165 13625.798748 15961.326468 18189.287911 21487.281504 20891.855255 19930.187189 22766.604878 20482.463248 17235.104738 20027.252443 13099.053752 9457.160342 12537.338662 12223.741451 15136.797805 16711.882042 12872.425195 18394.967797 21852.298482 16629.522775 23738.598561 17329.275477 22103.419574 20812.026943 19943.346495 11153.189708 12565.513409 11621.197687 12511.925920 15772.988756 14945.876913 15634.127880 16878.972158 16628.794250 16748.075681 21568.488266 23614.278578 21137.168632 19869.033590 14703.507723 11977.893701 14103.065028 19563.271080 18198.211153 15131.872405 12758.584769 17134.032133 18055.312615 21298.917953 20669.952122 16384.773446 19887.375156 19493.983635 11351.404156 9140.729271 13551.678361 14291.382663 19770.342689 13341.985393 20626.251520 17414.604353 14920.843277 15533.869166 19571.473236 19644.158876 17929.914825 18905.990829 9977.051109 17901.506777 12446.759447 16736.251143 18887.416036 17947.912242 21350.259915 16639.988304 19039.186346 18747.152810 22842.340136 18516.569563 18403.212177 18205.101812 13753.524527 13161.695629 16260.579381 11881.859445 18032.118983 13045.507359 19484.936600 20149.797781 21279.954358 21345.662458 20860.100694 18237.164946 13019.126831 15270.201328 20728.037048 16048.490967 18119.619759 20064.242588 18988.629194 12860.028185 20323.837417 18779.438412 20726.562682 17966.277423 18172.280080 15321.360840 13056.722853 12916.840105 18521.478941 12136.217496 18877.179082 14110.612993 17925.404856 18731.544775 18764.719297 16505.759200 17581.859367 12231.020123 12896.605937 14282.721161 11730.838843 11393.184329 14979.368101 17458.417604 20943.442367 15446.168065 19426.291981 18034.277846 16798.575706 12730.450088 11953.350210 12086.185495 19854.337697 12516.163741 18916.678320 20494.737140 17310.102084 19174.378533 20416.139042 19323.440665 16796.949727 16797.306607 7117.363343 16789.667972 15397.127396 18867.910371 15972.524564 14619.776095 16529.578611 22079.574778 20137.407393 18640.114294 21445.797002 16580.027584 9800.362906 12523.704451 13684.039311 20144.590600 18954.765427 18296.494096 10549.969750 21709.839717 13061.959867 16236.430462 9459.130877 12886.431923 12512.191209 13609.873880 8699.369290 18912.001925 16584.887397 20226.685301 15892.547573 18693.777483 16018.188326 11749.220769 17321.970886 13546.759609 15443.933175 17303.331130 12877.133588 16146.736179 18964.500115 17776.808199 15551.556544 14811.390197 15205.119100 12041.093702 18348.610635 17923.004854 17838.542625 16766.016245 20973.957720 22012.469342 18160.947246 1230.301034 8838.426625 6967.047953 18208.933737 13616.351266 17991.090453 13890.373790 21269.018072 18913.072437 15416.728592 4251.660533 15416.879992 14738.998803 14960.688783 18879.272159 16987.673892 18734.300251 19080.472299 15225.920177 10280.432133 10459.034310 15504.809258 12823.588003 15324.946608 19320.605480 17335.964625 14340.300027 15606.388048 10218.236930 10757.527929 15510.394335 17312.792592 19701.398063 18901.132540 20306.118409 19120.108035 14120.485123 11714.118796 15478.670970 15019.643339 15637.160738 15129.926494 16005.108832 15475.908734 21803.225377 6335.532689 10565.705801 10240.101223 15162.909068 19431.243397 16010.543508 12222.757642 16428.248088 2711.892829 15440.478845 15195.489588 15696.562908 14459.536026 15087.022804 19486.805576 13572.750314 9996.525772 8110.157491 15592.245049 16638.779696 17336.183647 18600.193115 15178.381028 10457.673509 12906.883138 11549.363099 11778.738599 19120.736649 15577.614994 12466.674552 12179.073268 10749.754155 18653.134696 6112.192855 16878.738134 18048.539760 12464.376511 12463.628071 7789.773313 15572.049733 17288.463765 13232.878663 11969.828269 17320.325317 1160.102816 14553.417757 15920.372745 18854.506793 15004.925747 19158.806026 10810.244146 17658.455951 13313.739129 13309.531441 14282.277816 11577.671286 1470.534833 15354.289311 13777.348673 18826.154875 11600.269527 10006.577782 15885.867355 16129.431343 14262.606970 18489.777997 6954.997365 11820.124229 11508.748321 9812.058244 11266.239383 11146.136700 11241.166218 11555.956504 15141.445492 11838.483572 5220.598467 11499.829586 15159.097689 1564.892432 11662.574217 10390.178538 10246.590459 13394.280304 14021.439824 15481.530955 10221.794516 13789.300309 7634.318611 9890.724419 11038.441022 13186.668183 9812.147046 11763.972624 17892.375116 7649.235400 9227.311018 14348.781929 8724.428175 15179.864866 7711.226981 7526.521246 11574.691290 14776.729299 13067.243714 14059.677027 11994.004676 12751.756526 12751.532190 14472.497666 11706.965314 15689.564169 6818.517434 14467.784026 8130.626404 8184.520081 13627.468759 10946.183925 13721.436752 12237.284204 12851.037021 13528.417238 13874.671080 13999.289734 14382.496368 12853.410596 18292.214932 15980.453201 13029.555344 12948.894984 13542.129055 14002.599072 14412.220703 10512.514773 13166.346933 15184.197855 16974.433674 13575.359735 18378.757695 18710.136739 15141.604418 13579.196045 13085.142985 11447.547572 13982.945330 13629.417976 13039.709859 12560.064549 11410.741600 10235.855177 12599.164463 13230.752400 16790.584794 12167.848271 12992.173597 18060.178910 18481.846571 15585.799257 12850.389352 12745.228490 14941.145099 15997.227508 12178.211537 13061.657061 15148.220996 13161.076548 13350.858522 13987.335460 14435.769600 16632.435222 15415.479693 13218.482174 13328.288775 13092.414210 16279.366472 13880.524352 20851.702471 13510.606920 13298.395651 12836.594833 13222.541030 12812.643430 12903.119258 13851.628548 13339.096711 15943.705990 14059.110686 13749.553665 13755.966920 15316.431289 15848.391029 13263.556796 12963.734835 12613.004112 12899.022614 12713.600866 12899.314114 12863.529194 12907.169007 15063.330770 14197.917108 14305.783314 14631.731104 14103.330038 14121.172527 14509.775655 17804.558282 12509.946930 12952.013726 13290.010159 14282.609237 13544.749927 13242.198121 13545.901179 13934.831372 16309.122506 13642.619297 13511.493160 13405.848970 14057.278505 13926.584842 17939.183263 12888.081117 12805.588892 12653.644038 13373.725570 13409.916364 13944.426628 14878.267249 13006.151633 13768.442131 16762.676740 13634.382930 13826.253689 14390.403534 14664.278860 14202.216296 12947.121127 13228.304438 13630.859270 12840.607668 13680.340569 14244.909847 13434.956280 13857.581551 12785.502655 13850.410643 14561.260380 15092.092095 15327.070600 18332.586454 17136.275587 14561.707344 12864.744333 13177.628074 12992.648554 13487.579220 13308.182351 12707.457643 13715.487276 15795.557149 16522.330192 13982.339977 13886.809183 13867.139789 13566.157136 16690.322057 13338.194296 12748.792600 13568.127418 13691.335792 13369.558834 14255.729312 13853.485699 14850.749731 13238.249213 12973.873962 13580.373996 14253.949803 15419.891612 13726.057546 14541.641099 13016.914596 13613.966017 12592.573090 13486.390895 13622.180600 13143.243291 13408.908258 13610.262864 13215.848713 13291.911010 13654.123064 14364.630402 13323.112763 13012.350551 13914.202110 12672.210750 13627.781191 13061.823400 12889.888213 13352.832762 13643.488234 14300.927165 13058.064046 13074.201872 2631.096385 12179.353909 13091.586379 12483.354743 15220.788375 13273.754874
</DataArray>
<DataArray type="Float64" Name="Velocity" NumberOfComponents="3" format="ascii">