<VTKFile type="PolyData">
<PolyData>
<Piece NumberOfPoints="2186" NumberOfVerts="2186" NumberOfLines="0" NumberOfStrips="0" NumberOfPolys="0">
<PointData>
<DataArray type="Float64" Name="Pressure" format="ascii">
 31575.313520 31754.773730 31232.353626 30827.622174 30477.354173 30312.161568 30647.458291 30885.230914 30763.869685 30890.348861 30962.396106 31221.657389 31777.914516 31489.436865 30946.382432 30948.635559 31025.466707 31119.842715 31563.402954 31694.810014 31350.816671 30618.641219 29836.955655 29598.202901 29065.696777 28627.068711 31773.870141 31777.491546 31925.804294 31841.179581 31303.278658 30843.941240 30994.258056 31397.971857 31399.741479 31067.469623 31077.283752 31692.805378 32277.270003 32472.123811 32279.471750 32025.399718 31805.502741 31640.283780 31555.426737 31847.631640 32405.996032 32413.403456 31494.555631 30378.355469 29766.146942 29409.675672 28863.168493 28605.023196 31725.540695 31783.435098 31862.589577 31920.825389 31909.574175 31762.090526 31651.115399 31712.522674 31766.609436 31691.206380 31633.637001 31737.177195 32081.524565 32467.936056 32615.950369 32690.681620 32752.284376 32610.230354 32326.518922 32149.041705 32207.370217 32354.507963 32208.961861 31630.612933 30888.692551 30206.733856 29533.431260 28947.365849 28729.466362 28627.068711 28833.478355 29390.433018 29047.237337 28206.775969 27878.431777 27929.472441 27570.203603 26507.676029 25751.202305 25295.696026 25121.323410 25084.635580 24749.312112 24213.161924 23314.226228 22361.106328 21829.062569 21478.735364 21015.920199 20184.153518 19186.268166 18707.950304 18776.963344 18558.144065 17470.777576 16509.628123 16249.971272 15953.417053 15659.415842 15448.572673 15107.335584 14496.890907 13648.811257 12475.394201 11783.515036 11740.578292 11773.850711 11484.524287 10741.197748 9989.371352 9513.745492 8945.449676 8688.488043 8217.632120 7769.826954 7126.930555 6354.259322 5954.179312 5681.595033 5623.913313 5905.718327 6608.030358 6424.585577 6257.205355 6240.993783 6013.846657 5140.948132 4858.842477 4645.544954 4447.468905 4664.362102 5367.151221 5453.880641 4444.841432 2769.745728 2506.764070 3546.509242 4599.758149 5452.027504 5146.940245 4250.789958 3728.837631 4469.832234 5761.278823 5989.765265 5472.955066 3968.501276 2676.281057 2247.602711 2048.218967 28605.023196 28727.114042 29251.712358 29291.397528 28712.457887 28193.701866 28038.863816 27770.724030 27009.168939 26090.976912 25428.902972 25300.923694 25330.572261 25093.323485 24477.871531 23792.635381 23140.040842 22404.017047 21896.500689 21457.201445 20694.132097 19870.468972 19290.843336 18946.096709 18410.874559 17534.381541 16661.794446 16253.040852 16013.712526 15698.762395 15269.231905 14772.566973 14185.616459 13456.290204 12646.521527 12037.041487 11813.818751 11695.948579 11327.955327 10611.847968 9889.599886 9309.356286 8866.119660 8651.809685 8416.884399 8044.981720 7499.755441 6964.706867 6698.255554 6584.899224 6546.703794 6602.348061 6516.050386 6179.570493 5892.116753 5830.023302 5587.628238 5154.857930 4929.785067 4737.949244 4515.271455 4759.255838 5275.320629 5306.432267 4692.297477 3983.634266 4008.678046 4811.173519 5586.229538 5609.251571 5088.955439 4536.482759 4257.957102 4550.743490 5209.803939 5188.243206 4267.255319 3270.673416 2639.027703 2217.252826 2056.200254 28729.466362 28673.729919 28742.017367 28722.015265 28475.209884 28102.248989 27769.408384 27397.746184 26849.790507 26179.064265 25622.615050 25318.816196 25167.579397 24925.684565 24394.823755 23730.738588 23102.185115 22494.349327 21982.287241 21527.714877 20960.282608 20345.181113 19822.478051 19337.926755 18712.002777 17884.464914 17028.854741 16372.412302 15958.904846 15627.205732 15233.348166 14753.799029 14212.580869 13606.096471 12939.390409 12291.694420 11814.200408 11516.692022 11179.076511 10653.533617 10047.583408 9487.261661 9001.135755 8595.647139 8270.245637 7966.259716 7645.353997 7348.282570 7129.792765 6987.554493 6864.044168 6730.618840 6551.744295 6297.417344 6025.506758 5820.382858 5648.858014 5436.408183 5212.342352 5009.803496 4826.096058 4767.541751 4898.289362 5069.591483 5098.513695 5005.020359 5004.116680 5221.915033 5486.178686 5535.653657 5315.356332 4961.699949 4669.377519 4595.545251 4713.826094 4714.808803 4323.910917 3652.321389 2995.804747 2492.759037 2162.173315 2062.968738 2048.218967 1916.632897 1737.653365 1618.177500 1554.635645 1524.241579 1497.692295 1475.426213 1462.284409 1479.866721 1551.569074 1632.660301 1699.394684 1753.760240 1797.558237 1831.503589 1856.036673 1871.577652 1878.578685 1877.527999 1868.933676 1853.268925 1830.792477 1800.783747 1761.010329 1735.068689 2056.200254 2000.832833 1901.017735 1767.389582 1654.003473 1578.329006 1537.935879 1514.823317 1495.690033 1486.410327 1498.750981 1543.695347 1608.153147 1672.811713 1729.101485 1776.065781 1813.863059 1842.747457 1863.041147 1875.118801 1879.399651 1876.341519 1866.436007 1850.205537 1828.217689 1801.233121 1771.389522 1749.783178 1741.170836 2062.968738 2033.614126 1981.310899 1887.455061 1770.942716 1665.907811 1590.482184 1546.608713 1521.269578 1504.143997 1499.003261 1515.203482 1556.432030 1614.451302 1675.115464 1730.029570 1776.607468 1814.249622 1843.011834 1863.165264 1875.074635 1879.162465 1875.900415 1865.818903 1849.556271 1828.023395 1802.886213 1777.491306 1756.943196 1746.882264 1744.350333 1735.068689 1695.553917 1622.941404 1552.431786 1482.644514 1412.386877 1341.742193 1271.065859 1200.769450 1131.252529 1062.881624 995.983761 930.844855 867.709969 806.784434 748.235503 692.194358 638.758388 587.993651 539.937465 494.601069 451.972305 412.018282 374.687976 339.914755 307.618781 277.709286 250.086701 224.644626 201.271637 179.852928 160.271774 142.410844 126.153334 111.383958 97.989779 85.860908 74.891065 64.978022 56.023939 47.935593 40.624523 34.007095 28.004497 22.542681 17.552246 12.968290 8.730224 4.781562 1.069693 -2.454356 -5.836172 -9.118201 -12.339994 -15.538452 -18.748053 -22.001076 -25.327808 -28.756736 -32.314726 -36.027185 -39.918200 -44.010669 -48.326412 -52.886259 -57.710130 -62.817097 -68.225428 -73.952620 -80.015419 -86.429823 -93.211078 -100.373660 -107.931246 -115.896675 -124.281897 -133.097912 -142.354693 -152.061097 -162.224760 -172.851971 -183.947519 -195.514516 -207.554178 -220.065573 -233.045308 -246.487169 -260.381700 -274.715709 -289.471734 -304.627450 -320.155098 -336.021006 -352.185525 -368.604288 -385.233657 -402.049994 -419.112597 -436.849998 -455.882390 -466.612661 1741.170836 1723.426522 1680.634754 1618.007542 1551.137608 1482.285455 1412.291793 1341.711882 1271.041551 1200.734455 1131.203034 1062.817772 995.906900 930.756674 867.612218 806.678827 748.123677 692.077856 638.638644 587.871985 539.815078 494.479042 451.851598 411.899737 374.572321 339.802608 307.510656 277.605598 249.987775 224.550704 201.182884 179.769441 160.193591 142.337947 126.085661 111.321408 97.932217 85.808174 74.842978 64.934385 55.984543 47.900223 40.592960 33.979119 27.979894 22.521238 17.533759 12.952563 8.717070 4.770805 1.061167 -2.460805 -5.840687 -9.120914 -12.341026 -15.537913 -18.746042 -21.997685 -25.323117 -28.750820 -32.307652 -36.019011 -39.908981 -44.000454 -48.315245 -52.874181 -57.697180 -62.803311 -68.210840 -73.937265 -79.999330 -86.413033 -93.193623 -100.355575 -107.912569 -115.877446 -124.262160 -133.077712 -142.334079 -152.040126 -162.203492 -172.830473 -183.925868 -195.492796 -207.532487 -220.044022 -233.024025 -246.466302 -260.361415 -274.696198 -289.453204 -304.610106 -320.139067 -336.006094 -352.170432 -368.584033 -385.191143 -401.927568 -418.715719 -435.402181 -451.424082 -462.487781 -466.996336 1744.350333 1737.860774 1715.084210 1671.196233 1614.233480 1549.805108 1481.832985 1412.137058 1341.665250 1271.042163 1200.762152 1131.250281 1062.880932 995.983548 930.844790 867.709949 806.784428 748.235501 692.194357 638.758387 587.993651 539.937465 494.601069 451.972305 412.018282 374.687976 339.914755 307.618781 277.709286 250.086701 224.644626 201.271637 179.852928 160.271774 142.410844 126.153334 111.383958 97.989779 85.860908 74.891065 64.978022 56.023939 47.935593 40.624523 34.007095 28.004497 22.542681 17.552246 12.968290 8.730224 4.781562 1.069693 -2.454356 -5.836172 -9.118201 -12.339994 -15.538452 -18.748053 -22.001076 -25.327808 -28.756736 -32.314726 -36.027185 -39.918200 -44.010669 -48.326412 -52.886259 -57.710130 -62.817097 -68.225428 -73.952620 -80.015419 -86.429823 -93.211078 -100.373660 -107.931246 -115.896675 -124.281897 -133.097912 -142.354693 -152.061097 -162.224760 -172.851971 -183.947519 -195.514516 -207.554178 -220.065573 -233.045307 -246.487168 -260.381694 -274.715690 -289.471672 -304.627251 -320.154452 -336.018907 -352.178707 -368.582135 -385.161662 -401.815836 -418.353224 -434.332942 -448.703877 -459.877321 -465.620256 -467.218785 -466.612661 -476.661522 -494.306401 -510.887674 -527.756068 -546.405175 -568.452236 -595.997755 -631.825811 -679.610777 -743.588964 -827.239671 -935.124378 -1094.499169 -1016.794052 6.928152 233.723840 295.537614 567.120089 465.206367 1577.040866 2812.022610 3826.077459 4694.179490 5474.606754 6035.154864 6518.271364 6933.758619 7383.006478 8390.533007 9421.292092 10371.293654 11619.342013 12814.774633 14119.348779 15288.333397 16498.313628 17863.946171 19405.703233 20898.366842 22311.045356 23814.497921 25145.732179 26266.652105 27135.331288 27723.526079 28203.800097 29164.187678 30208.623534 31179.340908 31575.313520 -466.996336 -470.988588 -481.048207 -495.698608 -511.231712 -527.785867 -546.286097 -568.209587 -595.593294 -631.136754 -678.295844 -740.664644 -819.163386 -906.848502 -985.320234 -970.234447 -492.632807 257.181311 446.949758 283.123062 748.133995 1812.719652 2893.898030 3848.768226 4676.101774 5392.034030 5994.789286 6517.917456 7007.446823 7595.332389 8438.798135 9412.465409 10446.533920 11620.605977 12768.603397 13897.255181 15124.559374 16431.333687 17839.963103 19368.179421 20847.920599 22237.897237 23601.465449 24866.676956 26062.701680 27049.844087 27812.854164 28518.115920 29269.323251 30072.111225 30877.121550 31508.789354 31773.870141 -467.218785 -468.574598 -473.648980 -483.697051 -496.747234 -511.621756 -527.980871 -546.471023 -568.456114 -595.922111 -631.501603 -678.411045 -739.395283 -812.574522 -882.208866 -903.554255 -789.182462 -433.176532 83.379594 397.273212 596.321259 1129.192247 1993.131330 2953.796154 3858.702404 4660.910747 5361.534101 5973.449542 6525.888042 7078.172708 7728.851294 8534.638270 9458.596862 10475.397601 11579.471486 12714.548553 13884.070852 15136.195099 16442.633644 17814.132346 19255.135579 20696.792782 22100.607574 23452.318754 24729.329802 25901.921356 26941.406890 27852.163997 28681.752033 29492.554777 30323.621093 31084.683925 31600.943209 31735.136588 31725.540695 9305.881668 10052.837129 9261.525851 8741.297339 14494.592806 15615.738419 16419.024736 22020.734021 19952.440484 9769.952030 23974.288160 24556.446083 25993.788874 27256.988507 27450.241991 26578.854923 28011.655020 28451.564761 29889.704264 31143.973795 11232.412064 16267.972904 8457.105702 19987.922895 10834.299923 13816.631554 11359.370156 19319.334102 22298.045106 20488.476481 24580.022590 26020.816993 27869.125373 28740.036819 27719.024886 25785.178136 29489.603400 30952.566034 30715.647060 31321.997273 16071.072803 17491.515255 10706.401367 23267.337166 12116.977853 21597.460031 20881.701516 29046.364941 24517.472233 24965.177023 26245.744022 26599.810035 24558.339601 28083.629962 30159.529804 30793.470546 30788.179558 29081.189951 31125.122211 30568.389451 21857.226864 26035.632660 17965.608138 21081.891639 18715.670918 27168.684011 18729.894797 25366.287072 24049.981331 26929.842854 27219.716502 30942.685913 28758.424281 29441.283874 26611.742834 30751.748922 30506.596125 30799.076616 30316.173007 30417.873721 22039.903410 27387.174445 10373.691814 17752.199065 26228.722229 23684.335119 17912.668764 23531.877199 25469.784752 17551.892269 29174.511279 25405.733719 25979.040427 29099.611043 28019.845758 29044.157595 27764.484147 30294.631394 30302.860913 30377.851509 12551.555589 20485.722326 14059.971266 15329.732317 15501.696079 19579.832346 22594.664144 28558.882942 21798.232573 22980.913955 26723.473912 31038.200216 22645.594762 23267.712146 28473.639031 29880.960281 27896.087541 30527.049524 30405.366142 30576.027980 21516.013304 18264.754412 21462.939374 18540.682017 15443.842651 24264.991658 27863.875625 25111.319654 25453.479294 19687.418960 27272.783682 26359.692447 28393.125691 28804.641648 26678.422893 26676.115257 29960.772304 30063.153435 30851.843644 30849.313324 21828.515104 16177.709150 18369.699583 21128.999063 20072.061804 18409.091798 14191.963324 20483.480794 24322.790150 20231.266637 27799.785304 25991.114790 27407.226790 27867.364690 28612.694140 28750.900174 27631.500404 31194.213580 29011.673551 30881.941774 16872.745037 16132.128039 19954.951245 11388.621224 21713.514628 16062.982217 21279.420484 16983.896498 17821.822483 20320.491151 18628.729961 22081.617679 23812.253345 26403.889538 27503.721470 23169.511921 27183.232781 23351.199873 30289.345122 30363.210083 13554.588290 19342.660764 25995.792742 13703.206394 19299.381361 23577.761288 17833.548278 18822.878481 17955.975626 25763.994632 23469.747373 23792.460017 24502.390037 25517.212669 23530.813960 25074.074583 29044.796951 29906.936072 25088.570702 30312.638365 20506.103666 24876.786843 18965.122028 18695.134775 24814.918140 25007.544394 20141.848389 21559.533088 21786.827915 23465.953860 22358.375035 27096.270858 22931.467574 28618.014213 25613.513368 28567.564936 24919.883505 28040.553486 30277.136078 29188.779322 10565.312120 10451.352289 15082.376484 23716.848703 18015.057597 19939.047461 15688.732086 13462.344222 21177.190649 28113.107209 24632.833243 22887.407781 27643.936256 23243.256645 22173.744021 29946.002867 27830.970773 27121.988949 28196.417120 30360.325911 13247.297219 15167.708812 14757.563603 17288.829772 20592.185800 16428.196468 18305.665214 24017.216441 21213.222144 19614.864297 17380.812213 25029.438558 19976.241069 27032.322918 26314.956036 24776.658131 28343.164486 30061.780884 30407.717377 30557.208782 9144.435925 10142.270974 17199.232441 11869.567633 16248.765895 20695.671341 17782.608740 19857.597622 17199.238329 24180.413111 23396.159975 27147.580451 28594.424024 25650.401251 27723.656301 26407.843294 30424.157077 30474.415378 29655.165466 30711.961880 5018.098202 9543.118390 12526.371139 16723.646301 17099.617136 22060.425317 17503.228620 23576.586066 21582.714430 17740.172106 26867.710717 22517.707942 27758.101435 27223.247430 27779.907897 22693.355122 25331.724071 30672.791794 29087.953146 30670.337458 7578.258107 9449.982180 9669.755429 9673.254447 18770.098459 24049.739177 15593.216574 12976.260807 21728.187977 15935.993890 23020.122501 19610.167853 28477.886192 26168.497582 29624.782340 27585.244089 24811.185374 29140.339679 28227.179864 30761.920252 9126.514581 10533.662519 9806.317103 11016.120893 13647.858748 12774.901645 19071.309433 22430.980602 20755.823904 19213.930554 16396.249861 26815.158475 25472.412495 28148.677225 23317.849953 28023.184938 26443.101846 29218.332648 30429.411730 30525.987235 7476.584062 7215.818997 8842.585885 9413.687716 11068.909417 12306.824834 14085.158993 14034.584875 17067.147986 17977.241182 27232.898397 22902.065626 22572.094618 21910.702893 27307.962000 25522.372580 26403.646404 30878.052128 28588.890724 30641.740253 10658.034124 10285.447462 9553.226835 11272.110810 9975.295376 10174.528122 11664.204061 13077.224771 23571.519165 25078.374035 25404.222860 24210.580116 29553.988826 25383.559279 27906.796685 29048.662351 29779.970555 27866.522362 26865.692813 29187.460391 8977.072012 5781.542145 9575.723100 10321.704255 10812.451032 10663.136783 10400.120637 20194.746017 18606.111374 17792.245788 22767.277866 20758.302541 28563.985611 29310.249652 28704.384879 27778.509566 30535.154632 30674.033929 30979.394366 30899.818770 5204.185397 7741.648704 9591.908423 9777.139914 10182.009221 14161.435197 14181.964733 16849.355968 16076.482134 21708.649445 24157.701399 21758.068384 24264.803670 28034.069247 25931.855583 26859.559566 28071.840505 28469.577795 27167.428323 30508.689080 4601.739514 2965.210949 9178.592223 9801.696540 13359.430478 11579.619180 14909.873009 17949.684621 14482.664442 15493.447801 25701.773355 26451.602926 26350.406796 26896.039161 29198.515959 23510.978482 25510.902211 26649.019592 30252.146303 30342.104192 11990.390354 9576.319537 12637.064309 10167.146229 11625.643135 10960.684718 15348.341374 14355.503892 17535.080731 21054.068102 19619.966141 26374.224137 23797.344927 26465.116966 22009.551015 28325.652935 29092.102738 29869.152168 30789.653331 30129.434672 4014.372431 9566.486647 9825.484607 9956.684858 11875.891212 10301.772364 17859.426779 16200.802697 12623.951960 22463.069435 25591.919192 27197.982315 25583.347296 26680.012526 29340.916435 30566.564615 30737.806028 29906.512046 29804.124628 29003.430396 11818.052505 11665.814263 9417.708357 9528.412156 16437.273591 11947.922008 12326.208509 18029.994871 14894.533188 18570.041042 17455.824235 22721.550318 21048.935374 19172.714264 26409.578731 25875.889212 28561.535118 29021.985908 28409.997076 28872.897191 11294.268274 9593.385408 10876.438716 9474.913484 13180.162367 12712.620638 13533.719152 14160.390040 16354.011809 19468.532202 17646.956948 19470.856817 23711.770563 24375.906544 19560.507058 26314.537366 26889.247417 28083.841293 27422.913241 28761.204450 9364.078363 8069.884774 10860.839050 10567.500113 16237.803485 12722.254002 11671.234058 14629.175719 15852.383193 23765.590591 16012.847186 22199.529080 18665.871306 25083.752041 24898.437345 27239.230998 26809.038341 29874.890983 28906.051685 8421.892646 7293.399168 9994.495528 9047.592613 10199.825106 14151.379531 11552.195254 15736.557798 22074.510859 19461.616079 22573.326276 23912.263616 26027.638707 20341.215693 24219.179445 26740.928921 26515.007024 27225.854082 28195.621087 8831.032091 8981.364315 12135.605688 9257.824279 14003.565234 12992.059037 10430.650624 13925.675830 16831.240503 18043.600879 22265.309811 16405.318775 23568.804270 19036.788673 26318.203733 26016.528499 27351.492263 26341.988576 27579.206029 4431.481132 10296.129159 10959.499352 9709.012678 11381.311401 14127.482420 15134.830722 13849.067566 17207.124137 19012.228229 16804.808936 22335.467364 21691.267372 24467.318675 24775.976906 24205.941435 24466.001101 28339.806421 27548.975545 9165.053777 8359.860490 12907.955772 12056.207251 9035.026453 9816.148677 15124.754857 14705.867959 13615.130278 14374.462030 21227.128133 17654.931737 20419.585425 21811.482890 20176.818193 25061.437705 25699.733422 27413.929567 8927.770198 8377.852921 10146.904978 11250.682795 12519.016012 12233.480234 13396.001893 12783.304791 15422.313913 17210.516019 16341.915355 21106.139379 23397.091599 24188.815847 26048.731913 23178.398695 25313.995681 26659.096919 7332.484536 9477.748813 9929.099433 14269.183609 10728.401100 13673.309442 11276.390808 15343.648834 17516.372870 15573.544512 18980.842546 22238.089374 19744.226130 24676.698379 23788.494316 25200.912743 28289.153321 6719.759485 7627.982180 9778.760473 11655.853788 12815.071684 12714.797846 18472.291243 11932.212820 11383.385529 17311.802100 19566.617553 22011.012502 25569.158932 24292.965320 25973.710576 26381.800820 25381.591351 11086.650461 9345.787532 11053.905079 10555.232153 16470.990383 20023.613869 15549.609117 12818.859644 13610.260024 20739.780799 18321.226812 20368.800867 23847.260911 25415.766079 20777.052674 23680.044202 25052.898960 25108.511945 4462.426165 10668.622514 17320.904711 9714.544010 10259.305816 10589.180356 15108.336706 18165.256794 21681.452644 23499.314278 21508.818486 22382.159343 22597.443222 22387.891701 23846.856799 24252.969635 10448.906714 8248.952157 12267.428780 11342.466765 11723.539904 14896.609962 15488.762309 17735.056891 14622.619722 13062.543459 20564.617385 21021.923345 22949.148939 22715.352820 20042.717900 23544.881159 8376.937576 7289.275785 9006.337012 11849.838703 19414.017493 16314.781616 17186.897671 17752.283536 14546.500147 14087.216147 21488.368847 20083.636211 22253.649491 25009.265444 24609.388113 22969.552753 8794.418345 8353.184415 8436.984938 12557.910128 12048.179478 10681.424487 16169.579517 9507.957375 13567.042583 18294.773532 18545.126400 22177.167498 21160.348779 20877.572251 22120.885466 8133.756856 7400.095825 11514.129181 9992.586652 13692.500359 10793.183714 12219.430689 13227.797902 18563.458609 19292.877986 20891.125425 21282.352373 19852.978528 15483.559593 21382.105831 4791.003509 8066.178054 7469.114597 8750.904565 12956.268665 12837.627675 10338.008986 13742.394527 16132.159836 12624.117218 22539.189279 15196.826548 23626.300353 18003.125558 21103.709436 7989.192730 9473.982362 7274.638098 8265.828776 12026.050918 11633.387624 13474.732414 14558.746877 15133.208016 11059.585220 20349.444643 22693.123661 24727.603723 20836.402288 4344.748105 7542.180219 11786.293319 14318.973644 14931.550836 13173.069178 11820.638479 16402.488417 15953.583477 17730.636645 18083.719591 18962.664591 20900.782430 20373.383743 9918.758711 9600.328827 11578.725821 10283.832576 14761.237318 9615.810135 15438.648310 17541.369654 11217.428757 13370.285845 18898.829929 20943.262524 16323.735708 19270.504804 7250.486506 15287.021331 9233.552464 13383.965051 15679.649906 14228.730715 18672.741501 15964.370637 19723.620585 17197.918965 18964.000895 18500.802852 18393.483726 12147.186536 9427.588497 9278.013822 14590.157219 7735.146251 16958.392707 11222.693260 14654.073685 18721.395447 17981.143532 18604.149863 20103.857969 18437.141061 4776.979194 10268.955655 15670.969560 12835.639143 14504.623075 14095.085380 14835.883224 11070.260630 19792.880980 15453.948400 16387.706516 18067.991076 18480.771584 9238.759094 8794.305867 8767.324119 11444.021550 8301.067921 14825.756674 13549.234620 17627.241683 16736.035193 16871.552950 15846.890901 16520.839760 2413.784568 7904.097225 8852.009828 7772.826075 9659.382895 9895.662920 14149.506259 17734.448834 17228.112072 19937.057332 20317.379048 16428.146597 9041.143381 9485.514578 8511.788175 14323.077713 8014.142001 13498.195824 15925.652297 13234.409748 19730.248936 19172.947101 17055.129988 16354.937312 16356.201963 3788.512824 9927.538788 13399.044180 13933.359681 12293.570529 12312.625075 10836.955854 19429.968249 14973.075328 12485.859603 18129.572640 5559.602403 8457.968388 4391.030077 11041.407205 15052.919541 10488.340802 10852.568656 8443.758882 20019.769995 9529.836819 15595.588926 4273.185139 10756.599624 8872.747116 9933.730583 9856.024249 14310.589336 13947.254924 16122.869467 15100.172167 16771.951689 15291.790122 2581.597291 10682.848190 7716.505970 9909.940675 11202.413606 11315.834147 10544.271729 14481.285409 11822.462581 14647.548366 3734.394141 7755.031635 7927.711798 12617.360574 11570.972369 12404.452818 16213.872835 16353.564267 16827.323063 13994.284953 1460.098145 6512.393903 7854.487835 8670.332663 10330.742921 12801.819340 11582.831856 16259.349088 18391.613404 13166.962556 7844.645033 4323.888399 11672.415540 8914.757922 11398.374037 9616.778899 10428.813058 13005.002306 12018.722460 5881.728258 7627.646892 8905.760841 9224.509936 9544.130262 15001.841476 11723.151192 8417.014200 11971.243793 3991.436483 9833.327824 10388.772975 10286.840216 12541.406608 10855.543773 15039.060254 15075.125568 11617.726678 3694.907525 3071.908960 4630.364895 9802.631351 6545.344484 10767.168278 14129.128027 17746.902699 7352.394345 8791.187741 7424.908627 9781.919601 13445.762844 11196.181455 7526.594389 9265.794767 5432.554086 3499.310899 8108.556257 9315.886004 7575.762759 5756.394213 15952.135965 10123.339783 3416.727147 5343.618281 8500.876652 8730.649820 9918.517573 12231.630404 9242.393152 8064.208504 7681.927121 5508.294715 8731.758962 11382.996759 5035.476763 8772.378824 4542.020652 4731.467794 8906.224940 2623.506199 11479.100373 9265.622258 8627.899338 8748.781165 2543.128073 4685.715376 10902.252285 5093.062466 6572.364259 10682.086157 1468.700061 5880.970845 9260.935237 10509.443525 10135.577384 12256.487228 4205.145620 6674.596846 4214.738238 9370.646296 5826.298916 6464.574295 1540.859383 2852.831484 4121.986535 11474.063412 5669.988063 3683.825367 4266.935286 10900.920791 5343.871099 13157.738898 6459.738538 3834.011551 5621.212786 2886.106961 4934.651741 2174.424582 3425.914410 5013.783165 10071.379210 7872.360165 3889.833062 1319.041003 4872.144651 1597.123775 3033.179308 3349.056654 6361.728064 8472.473745 5590.969130 3565.793733 6423.923582 4998.170796 3901.038819 6262.070010 4416.556092 3521.309710 5863.483545 4477.942448 9412.911889 3882.142334 3585.616560 4977.794670 4444.173922 3503.196383 4616.146182 5080.937780 288.659546 349.219856 8505.604199 8149.142353 6714.314508 7418.871104 8383.085392 7985.641082 7619.295455 9523.402371 6273.379559 9917.167480 6985.700433 7282.344927 12587.462002 7495.123099 14274.911547 8269.543587 10572.485946 10174.536361 9425.865790 13533.721403 10236.017145 9526.010607 17323.184415 14456.075990 10234.864539 10662.259700 11404.393234 12816.478406 12094.526349 8080.694236 8831.608310 12007.046657 15734.953121 11631.654214 19796.183702 19932.012199 12442.071985 11185.189700 10516.984250 8919.565488 13946.017459 12390.684220 10468.201198 7598.713797 7109.705126 7092.786330 9199.479109 9775.480377 15261.512691 8105.544300 8586.631658 16822.075095 19546.747575 13853.951850 9802.429903 8173.746664 15139.239519 15687.269692 6823.592773 9540.684704 8911.565569 9705.535529 11111.617652 12859.255202 13878.835561 16928.836031 15413.880845 11341.824697 12825.430274 9336.501121 16200.417500 12221.961792 22340.305647 8504.844322 10043.673010 7051.741940 11142.547451 8302.080122 8006.554832 12717.540874 10084.120668 13720.264724 13847.614253 13192.510941 11516.316829 19798.475631 16492.351720 12032.462611 9570.926955 7806.567887 9155.495099 8025.012238 9026.678538 9849.640983 7804.719181 16537.721148 11632.877280 15682.664752 14551.860148 14282.249357 15198.638899 16298.507519 18462.453981 8775.736392 8999.267720 9781.648906 13021.245103 10703.069870 11580.557884 14782.523112 11891.207068 17149.232517 12851.263478 10443.762044 10902.100085 14297.826693 15983.911682 21445.271820 7460.009128 9132.786028 8945.275421 9533.002516 9377.297919 11895.615034 14617.546578 8737.000824 13103.004847 20450.825536 14332.617451 14697.904592 12663.268773 13467.494723 13070.137525 6961.450009 8885.977521 9476.663064 9585.340395 11145.760512 14681.146094 11411.233966 13479.401738 8292.544637 11616.674201 15386.568139 18002.499264 15214.901205 21135.587789 20193.819037 7535.587014 8162.501666 9830.221430 8533.570470 9167.602001 9828.886846 8668.299024 12213.001292 16144.262073 16061.779342 12277.801963 11394.709388 13173.579814 11817.619293 21250.724735 7090.081660 7866.430279 10306.258870 9455.883475 9395.031798 13274.911846 10718.586106 18276.129764 9965.254992 9592.385016 9644.197107 15132.660716 14484.984616 9865.003454 13549.811582 8732.125514 9449.560886 8684.465450 9613.610675 9022.535462 9390.623108 9109.438413 11732.569433 9272.451086 9422.103321 9582.308172 13193.643961 9559.305164 8741.281662 11257.809129 9087.206748 9887.739559 9347.981205 9352.349923 10252.506728 9676.631462 11019.733370 7553.054220 9372.689834 3706.225643 7947.120168 9841.604551 7766.061366 10523.611819 9976.552724
</DataArray>
<DataArray type="Float64" Name="Velocity" NumberOfComponents="3" format="ascii">