<VTKFile type="PolyData">
<PolyData>
<Piece NumberOfPoints="2186" NumberOfVerts="2186" NumberOfLines="0" NumberOfStrips="0" NumberOfPolys="0">
<PointData>
<DataArray type="Float64" Name="Pressure" format="ascii">
 27924.431412 28119.728307 28355.095314 28667.206702 29009.370501 29229.364010 28643.074956 27966.920633 27604.585511 27491.034684 28231.154044 28852.119650 29093.498201 29817.738331 29650.463487 29257.189394 28743.352952 29075.272133 28864.600462 28271.268336 27706.598553 27429.278671 26956.315967 26432.303151 25611.601165 25213.697393 27844.863431 27953.969340 28318.026346 28675.263780 28891.492149 29184.358438 29476.780259 29221.020267 28607.002829 28371.950986 28406.165370 28303.450922 28617.548232 29328.526481 30164.795437 30444.653023 30181.216365 29649.057294 29026.634450 28599.867598 28551.510363 28665.819063 28348.903485 27788.735360 27109.459845 26311.254991 25359.516441 24930.294919 27873.947831 27898.836134 27930.637762 28015.846400 28154.254875 28297.358225 28457.393471 28577.432300 28514.978458 28315.978539 28236.848245 28321.977852 28450.484706 28763.515956 29218.947755 29469.917059 29530.885012 29439.638711 29233.785285 28942.712454 28609.614392 28379.883445 28140.684819 27703.234301 27129.461413 26545.961725 25839.106225 25044.028610 24707.186930 25213.697393 25229.664569 25336.169386 25377.196635 25187.753705 24960.303731 24436.169587 23880.816535 23288.228267 22530.609868 21750.903135 21561.884286 21926.510343 22062.360976 21616.856507 21090.338599 20818.414580 20415.953974 19768.359944 19422.869003 18864.321257 17902.096581 16667.385979 16067.913247 16012.745942 15771.061432 15572.536391 15398.546617 14876.652545 14362.374028 14130.753573 14043.623403 13563.156671 12602.229291 12100.111395 11798.385405 11673.526560 11718.622997 11802.138398 11539.245887 10593.937771 9463.654089 8901.075693 8790.157898 8999.131117 9221.128163 9195.369498 9119.318906 9191.168247 9133.468441 8803.789383 8433.954013 8074.190410 7940.614958 8144.621321 8383.647038 8204.904037 8270.701317 8442.766624 8986.905342 8758.369668 7842.842741 7740.745886 8073.041105 7667.785468 7147.201580 6920.873374 7205.557679 7606.564748 7417.127659 6868.720046 7181.100161 7065.117837 6936.956365 6249.431894 5169.309678 4698.885116 4207.254907 3645.234584 3060.483053 2712.504956 24930.294919 25010.338356 25449.932399 25713.012646 25521.736433 25050.547304 24620.427377 24382.077280 23951.411826 23215.673686 22240.432601 21806.919460 22047.701209 22144.399738 21753.922355 21266.811035 20987.692307 20703.072816 20041.652919 19400.116710 18734.853916 17831.984239 17044.814605 16580.793964 16241.752798 15886.441013 15552.347345 15335.273972 15105.926528 14714.177905 14260.585968 13992.270634 13693.141903 12946.804981 12202.336266 11737.066357 11249.197556 10917.401849 11052.904872 10879.733622 10203.626887 9584.869413 9094.528037 8949.249938 9095.629542 9162.437108 9113.454238 9064.110337 9018.137525 8796.406443 8437.986040 8158.018312 8032.003232 8050.863099 8165.053970 8147.029112 7977.860136 8025.863059 8298.562974 8416.307483 8218.665111 8058.334863 8398.077180 8572.602587 7984.445861 7275.092844 7166.128032 7308.482341 7174.406797 6862.752184 6681.747266 6704.097077 6616.376841 6103.579479 5417.811895 4834.333422 4336.781871 3897.342673 3430.920408 2952.348246 2752.744877 24707.186930 24659.132223 24830.873703 25040.086087 25049.464145 24794.019032 24489.520211 24215.062706 23832.916201 23293.813736 22683.111525 22233.256311 22103.417146 22013.537226 21740.052373 21360.581038 21002.774419 20668.339539 20227.693093 19693.281676 19158.767159 18483.423537 17711.368562 17026.902348 16470.321496 16028.238763 15617.591558 15271.161833 15047.369014 14779.168648 14346.210408 13875.093338 13418.950988 12863.659728 12265.657012 11809.103512 11377.414192 10913.827086 10633.452670 10462.010408 10186.474084 9802.301036 9420.164645 9177.938929 9116.544749 9134.338751 9121.770521 9059.999813 8971.389129 8821.869505 8587.272147 8345.231599 8181.275717 8100.985997 8072.908423 8062.921103 8051.737397 8052.963640 8099.123128 8141.865527 8110.652793 8075.089333 8155.244326 8280.776093 8192.069885 7842.941871 7483.906753 7253.554204 7068.037107 6857.740989 6660.309130 6499.833158 6331.056255 6033.864929 5566.155597 5034.395743 4531.916650 4079.379626 3653.611711 3237.833525 2895.302284 2779.149250 2712.504956 2491.864495 2177.041103 1954.332170 1816.280115 1711.826673 1604.222268 1518.263336 1452.062385 1416.941762 1420.960765 1432.117450 1439.531164 1441.634557 1439.931212 1435.164094 1427.829907 1418.345608 1407.071673 1394.306472 1380.275157 1365.106793 1348.759848 1330.672119 1309.692657 1296.958227 2752.744877 2652.945262 2472.962948 2228.196696 2013.401239 1853.653406 1738.084978 1642.726950 1557.448044 1489.319695 1445.025997 1430.336806 1432.586210 1438.541600 1441.644748 1441.462383 1438.327841 1432.610914 1424.682124 1414.887527 1403.532012 1390.868820 1377.095222 1362.354296 1346.749376 1330.423891 1314.137874 1302.869519 1298.283421 2779.149250 2728.055667 2628.735301 2453.233734 2234.385371 2030.636894 1868.462017 1747.327862 1650.176624 1566.684649 1500.453776 1457.759941 1439.207945 1436.946472 1439.884738 1441.936192 1441.442605 1438.187257 1432.396158 1424.402540 1414.543868 1403.124485 1390.401820 1376.588154 1361.876201 1346.522239 1331.079826 1316.831719 1305.825063 1300.404225 1298.939858 1296.958227 1281.065024 1252.328559 1224.780836 1197.498082 1169.762083 1141.407144 1112.406367 1082.782023 1052.577303 1021.847156 990.654751 959.069594 927.166157 895.022655 862.719900 830.340197 797.966295 765.680400 733.563248 701.693262 670.145788 638.992422 608.300430 578.132253 548.545124 519.590759 491.315148 463.758423 436.954807 410.932631 385.714412 361.316993 337.751717 315.024657 293.136863 272.084647 251.859879 232.450300 213.839846 196.008969 178.934964 162.592286 146.952868 131.986420 117.660720 103.941891 90.794660 78.182603 66.068370 54.413888 43.180552 32.329393 21.821226 11.616781 1.676819 -8.037778 -17.565920 -26.946247 -36.217075 -45.416355 -54.581638 -63.750046 -72.958252 -82.242454 -91.638344 -101.181074 -110.905208 -120.844646 -131.032538 -141.501154 -152.281716 -163.404181 -174.896966 -186.786600 -199.097288 -211.850388 -225.063762 -238.751014 -252.920573 -267.574616 -282.707821 -298.305915 -314.344017 -330.784751 -347.576131 -364.649188 -381.915355 -399.263606 -416.557340 -433.631046 -450.286731 -466.290119 -481.366459 -495.195436 -507.403273 -517.545382 -525.055998 -529.077834 -527.759821 -524.355175 1298.283421 1291.476314 1274.737113 1250.271216 1224.245311 1197.360976 1169.743158 1141.422796 1112.431198 1082.808019 1052.601764 1021.869044 990.673569 959.085051 927.178057 895.030871 862.724358 830.340871 797.963207 765.673612 733.552861 701.679414 670.128647 638.972183 608.277310 578.106488 548.516965 519.560466 491.282987 463.724664 436.919718 410.896479 385.677457 361.279485 337.713900 314.986760 293.099104 272.047230 251.822994 232.414124 213.804539 195.974676 178.901816 162.560401 146.922349 131.957357 117.633189 103.915957 90.770378 78.160016 66.047511 54.394783 43.163219 32.313843 21.807463 11.604805 1.666624 -8.046200 -17.572581 -26.951161 -36.220259 -45.417826 -54.581414 -63.748148 -72.954701 -82.237272 -91.631555 -101.172705 -110.895286 -120.833206 -131.019619 -141.486803 -152.265988 -163.387145 -174.878707 -186.767222 -199.076920 -211.829186 -225.041919 -238.728764 -252.898198 -267.552456 -282.686283 -298.285481 -314.325254 -330.768326 -347.562817 -364.639879 -381.911079 -399.265533 -416.566799 -433.649546 -450.316017 -466.332317 -481.424581 -495.275056 -507.518205 -517.737220 -525.463846 -530.206821 -531.718389 -531.706411 -532.502515 1298.939858 1296.529918 1287.808647 1270.804100 1248.708693 1223.692230 1197.163203 1169.659425 1141.375661 1112.396712 1082.779063 1052.576395 1021.846878 990.654665 959.069568 927.166149 895.022652 862.719899 830.340196 797.966295 765.680400 733.563248 701.693262 670.145788 638.992422 608.300430 578.132253 548.545124 519.590759 491.315148 463.758423 436.954807 410.932631 385.714412 361.316993 337.751717 315.024657 293.136863 272.084647 251.859879 232.450300 213.839846 196.008969 178.934964 162.592286 146.952868 131.986420 117.660720 103.941891 90.794660 78.182603 66.068370 54.413888 43.180552 32.329393 21.821226 11.616781 1.676819 -8.037778 -17.565920 -26.946247 -36.217075 -45.416355 -54.581638 -63.750046 -72.958252 -82.242454 -91.638344 -101.181074 -110.905208 -120.844646 -131.032538 -141.501154 -152.281716 -163.404181 -174.896966 -186.786600 -199.097288 -211.850388 -225.063762 -238.751014 -252.920573 -267.574616 -282.707821 -298.305915 -314.344017 -330.784751 -347.576131 -364.649188 -381.915358 -399.263615 -416.557371 -433.631150 -450.287086 -466.291318 -481.370504 -495.209069 -507.449171 -517.699746 -525.574744 -530.817933 -533.624861 -534.945890 -536.116226 -536.951247 -524.355175 -504.056550 -461.811765 -413.764025 -358.325910 -293.346683 -217.244425 -128.534237 -25.751206 92.559507 227.829973 381.451120 554.757265 749.021218 965.467365 1205.306956 1469.789567 1760.242576 2078.033387 2424.340823 2799.585533 3202.410668 3628.310128 4077.944011 4549.551704 4909.582797 5343.175926 5747.847395 6266.908851 7605.244830 8862.410386 9865.079821 11370.757371 12539.423269 14037.520680 18414.960295 19433.942458 18569.869825 18992.851296 19625.699205 20299.230426 21140.237027 22018.962245 23033.346127 24130.559209 25525.615491 26746.895433 26943.415662 27232.851258 27608.317472 27924.431412 -532.502515 -522.278091 -498.148380 -459.915973 -413.568584 -358.599188 -293.802434 -217.799376 -129.163980 -26.447792 91.799908 227.010740 380.576074 553.830506 748.046371 964.446510 1204.239725 1468.673406 1759.075965 2076.824585 2423.124562 2798.445693 3201.474647 3627.568886 4066.453946 4509.422971 4938.928401 5388.755029 5873.328988 6530.145128 7561.316971 8759.793030 10004.267583 11474.815981 13024.949979 14558.144074 16355.031474 18017.329239 19162.722130 19568.333133 19931.917184 20469.176447 21172.002063 22008.896092 22991.883609 24111.620600 25417.146746 26714.280969 27409.451245 27496.849728 27531.886267 27710.811864 27844.863431 -536.951247 -532.898853 -519.699331 -494.009899 -458.054820 -412.662370 -357.991680 -293.245826 -217.213970 -128.525043 -25.748430 92.560345 227.830226 381.451197 554.757290 749.021233 965.467395 1205.307065 1469.789975 1760.244062 2078.038496 2424.357029 2799.631298 3202.512566 3628.465456 4068.893247 4514.891497 4967.922583 5445.456670 5994.511860 6717.193710 7671.498628 8802.993806 10080.125698 11496.379626 12990.986211 14529.445050 16150.545658 17765.371921 18855.315932 19439.224768 19923.444070 20506.861756 21226.197200 22079.174724 23019.133635 23992.541715 24969.773836 25901.006348 26594.977788 26964.523664 27277.846676 27644.267189 27848.054966 27873.947831 9096.065992 9511.209538 10116.080660 10301.402096 14222.547588 17303.255953 18501.794807 19929.556115 17729.781072 11289.831026 21270.957744 21678.824039 22836.509907 24336.141031 24653.296360 23627.752576 25828.128445 26040.502846 26346.867591 27373.003722 10840.046255 15754.959709 8937.327101 18597.466946 12407.524739 14226.332767 14446.952290 17903.479892 20234.258357 19603.894520 20475.729310 24471.736776 24564.152543 25468.233742 24715.481776 23166.397458 26152.360730 25708.065926 26893.973588 27433.422064 16026.493108 16995.336486 11024.871041 20603.748705 14280.049838 18016.987960 19062.577142 26000.262384 21496.548704 22462.436982 23206.076356 23701.918610 22947.380898 25636.260226 25783.606151 26225.353002 25432.880600 24852.473679 27551.734666 25143.347268 19779.550424 22098.848258 17220.370025 18112.480821 18025.272722 24465.913682 16600.272817 22266.217751 23153.551722 25515.033936 25654.117790 27587.711903 24941.996844 26031.292553 24798.648823 25057.562824 27804.501786 25864.288518 28122.682083 28092.575368 21417.574684 24547.091752 12359.350353 16940.907352 24045.331782 20935.376769 16589.668602 23221.672279 21521.081772 15234.380410 25990.970985 23326.769466 24317.273130 26011.486147 25618.528021 25022.104678 25800.582086 26189.948480 25917.588098 28069.723081 11148.893833 19627.922568 13936.910257 14345.976769 15902.210210 17760.473726 21048.953846 26178.180061 19615.970665 21379.375466 23492.522743 26496.904876 18704.129544 19953.881629 25152.333868 26142.613750 25140.160656 25905.492811 26142.890642 27657.722992 20554.011206 17108.161811 19363.859575 18804.843873 13499.037076 24669.335814 25406.503968 24315.239255 22553.521071 17614.649476 23783.304130 23837.723888 25139.490473 26111.966251 24392.062194 23737.121003 26307.334485 26953.885189 27017.095542 26829.570013 19793.734077 15127.879601 17341.570866 19284.599517 18556.127699 15824.527725 15322.159314 21103.844475 22635.166860 18798.340179 25192.322065 21493.786567 25290.665179 24981.243863 24919.802178 26327.643418 25197.269591 26333.312315 25891.288196 27052.260840 14130.611388 13294.294601 16782.010119 11488.693120 18468.158147 15369.299484 19617.209858 15656.911749 16075.409168 17759.226406 16693.272875 20130.612719 21714.280805 23937.580591 23545.545025 20942.688583 25011.858665 21212.292289 27305.318361 27698.239591 13019.549887 16916.862632 21351.214326 14700.912490 16475.693253 19994.906542 14799.045355 16153.612115 16821.076725 23964.309866 21168.312838 20282.751292 22773.547247 22810.692245 21105.698972 22641.132589 26500.657587 26636.288419 22183.988671 27264.744854 18875.533554 20957.538146 13759.790950 17764.174167 20984.263020 22544.678764 18530.102109 17730.316096 19373.675524 20905.399897 18847.399752 25100.233720 21427.019994 26966.931081 23922.436384 26403.587661 22373.824777 26230.147218 27879.224915 26823.417041 9800.970723 11002.156696 13699.471613 17985.942427 15094.560584 17286.916390 15611.428367 12750.029196 17380.597749 25668.910414 21553.486000 19204.342975 22929.579769 20227.066785 19450.193299 24876.018772 25142.794723 22513.858877 25113.228493 28114.317665 13077.827660 12506.997618 13263.759605 15798.967632 16389.650415 13041.623950 16275.678812 19623.414872 16460.796931 17653.990368 15079.615383 22544.694796 18051.431643 23025.095243 22648.633088 22202.244827 24722.082339 25136.274898 27627.447307 27245.839258 8481.338284 10980.776002 16532.984163 11924.055449 14806.901461 18256.239059 15878.736311 17531.614977 14798.540654 20889.291457 20276.409972 21454.991591 27310.710572 22905.891859 24365.719793 24604.085426 26411.123568 24850.537629 24966.899996 27865.502683 10175.387682 9107.298416 11815.672050 12566.600025 14493.959526 19961.818968 13799.507236 19728.695832 20162.089264 15582.114126 22851.568177 18673.226882 23112.883826 25871.343850 26144.502122 19326.881473 20986.433346 28609.821939 24748.308470 27790.199675 9207.166880 8677.395409 8507.024671 10194.956950 15767.088630 21404.609375 15011.347578 12266.371352 18855.788797 13947.768514 18493.602376 16706.703993 25399.512590 23867.383433 26003.833674 25204.905195 22137.526663 28271.200373 24574.366679 28090.697713 12235.648823 11071.645035 8601.688364 10453.911411 14864.302970 12528.567241 14434.815270 18484.742903 20044.399617 15756.097730 14203.519742 24373.241979 22143.955248 25297.091696 20557.161435 26144.570790 20946.572101 25162.206337 28671.957900 28689.266230 9253.281000 8707.490791 8593.363469 8877.638304 10372.390758 11435.069753 14330.572270 12707.932516 15070.906702 15057.884690 23321.335608 18125.115833 17896.086324 17147.330794 24521.213816 21499.624388 24319.538113 25820.006092 27441.690438 27750.267380 8274.833437 9405.281208 8739.930009 11186.121476 9855.167366 10230.084231 12664.944768 12315.639533 21361.756410 22071.617843 20582.931884 21407.706959 25277.150458 22162.266101 24743.346612 25213.873114 25895.340842 26016.662765 24349.155971 25818.112089 8692.781275 8860.576770 8806.700391 10444.544026 11429.264627 10867.019014 10067.446289 18361.509723 15216.064129 16481.621356 21145.286197 19505.411850 25077.653613 24503.414743 24970.027006 24315.439783 25498.484851 26676.577183 27125.559963 25041.449787 8552.768113 9274.556437 9696.616670 8877.930402 10554.278990 12438.754174 13197.593843 15429.310305 15636.097575 19787.884965 19558.505551 18857.925947 19807.622970 25017.530784 19287.618373 21240.293207 24722.801108 26685.566864 24831.604077 26187.929315 6810.392513 9389.484526 8565.138892 9418.910185 13503.879388 11457.235284 14206.539675 15335.263851 14195.328896 14055.826325 22531.864582 24366.015113 23574.718721 23259.670287 25102.267642 20208.696713 23670.496564 22213.546651 26261.015015 26046.290316 11590.445569 9266.997897 11866.926053 9421.025112 12092.370027 10473.830885 14960.286997 13624.540151 17261.915969 18523.810420 18167.756533 24767.360623 20987.285168 24998.828119 18342.659638 24489.019377 28162.236149 27536.591038 24787.587374 25993.412556 9386.980046 8731.878560 9802.203829 9316.861878 11961.777355 9830.691006 17313.362138 13917.003962 11985.352502 19640.810226 23178.804579 22298.021165 22827.936003 24750.231253 24909.956940 25131.547712 24620.828944 27654.374463 25744.395723 25300.630573 12682.064031 12608.889768 9278.305390 9463.206679 15935.185704 10682.291016 12118.348098 16141.374079 12396.767726 15094.679329 15986.251630 21817.383474 16658.919200 16867.341844 23358.425493 23678.262036 25152.791072 25207.346128 26666.663387 24878.268655 11397.561811 9462.862577 11183.959635 8631.820059 12890.759312 10981.740473 10802.160455 12956.282915 13767.430355 16842.576147 15233.190939 17557.214966 21288.824238 23139.166762 16933.706498 22894.437353 23401.403926 24501.005042 25332.349132 25214.754040 8014.921996 9266.961426 10164.659777 10691.632132 14325.336140 14268.505773 11232.438211 12876.130486 14851.023845 19609.927103 16377.336787 18422.868244 16570.187759 22706.292508 23064.913693 23936.904089 25180.525430 26036.219844 24834.911567 9396.210861 8921.792471 9809.486677 8949.294146 11368.008790 12041.068397 10767.630192 14174.840550 19916.954324 15027.488597 18623.568530 20753.726777 23214.314987 17354.893004 23176.842057 24671.434896 24453.292243 23418.749876 24734.349207 8190.751223 9269.566842 11933.601223 8891.118613 13473.113383 13825.798878 10092.788382 13138.677925 14985.310171 16499.091583 21008.011460 15072.481086 22044.667389 15556.015856 24561.007491 24110.882504 24291.222705 23584.580773 24373.860016 8891.516693 9343.601103 10247.929676 9271.022497 10830.643811 11788.594375 14201.814568 15131.191562 15978.473690 17765.272667 16719.732946 18526.160736 20148.411516 20513.617660 22054.584867 22781.473254 21631.536896 23260.618879 24398.945700 8702.327247 8822.541443 10944.665244 10700.637873 9081.335872 9277.097081 13562.612630 14847.230819 11722.007976 12919.675358 18282.013740 14395.974749 17793.794886 18814.483240 17488.659928 23208.918410 23569.929496 23785.958341 8222.971011 9106.913873 9837.703303 9442.442347 10780.993681 11277.288077 12054.472480 11490.357804 16786.790336 17468.364570 15479.381081 21098.989626 19655.827979 22539.132713 24011.828232 22848.920339 22218.779140 22979.084509 8630.498290 8749.885075 10027.788081 11622.612724 10672.010347 12001.931091 10517.198799 15199.767594 15273.556381 14391.882497 16668.597641 19653.728664 19215.648013 23178.567390 19666.501816 23102.089116 25004.622183 8663.026884 9446.231294 9510.680674 10464.344287 11193.737344 11422.879300 18860.914066 10984.827002 10453.499870 17282.824380 16010.069396 20119.402629 24046.222784 21750.724166 21726.815188 23950.023512 22163.121698 9942.953857 9947.875018 9860.485597 9039.048507 17937.983660 20483.218097 13780.139948 13768.566563 12456.059436 21659.653376 15760.719192 21411.171022 22704.905892 23686.594002 18865.293269 21709.592136 21555.116192 21555.463872 8862.614020 10336.216399 17986.264014 9831.544598 9483.786747 9587.530797 12866.921845 16242.148053 19407.036114 20853.921843 21444.539196 21365.289707 21256.253911 21771.248028 22351.983107 21895.052702 9692.065802 8777.091908 12085.212732 11631.211542 10262.327948 15605.416827 14786.847957 18047.449957 15223.943329 11454.495904 20104.906352 20995.938925 22118.825769 20953.095825 16188.365499 20998.722558 8919.749015 8323.956148 9753.681187 12590.146693 20592.627463 17035.836409 16213.960787 17759.517035 13042.847358 12045.263213 19216.613906 20555.160624 22594.682904 23653.445348 22795.260674 21218.325925 8958.733046 9847.098828 9263.736136 13338.836976 10936.031413 10937.087544 17973.093568 10894.925354 12569.059958 18236.061702 18030.686954 20313.880070 21005.011861 20541.174538 20552.668218 8385.302232 9326.697928 12038.397521 10387.953116 12437.679249 9912.842950 11462.547133 12174.043451 19470.717023 20132.081791 19336.734802 21099.795453 19810.917484 16554.959678 20118.208610 8636.293506 7547.708128 9231.622910 8878.603804 13076.793468 13048.493780 10027.643294 14217.574030 18743.545106 12242.386627 21538.823006 12751.394320 22102.026793 18694.349727 19516.720888 8236.093223 8935.727028 8649.022668 9269.995483 12821.366732 10858.448501 11562.382246 14254.147201 12637.273542 11105.228608 20918.970704 21993.498959 21802.860049 19326.197211 8611.885430 8519.933420 10658.861963 14395.299275 16076.764450 11682.217454 10881.137336 12377.986721 14235.918087 19634.428481 18720.274476 17000.647495 20383.046576 19204.499364 8561.082732 8481.030153 11221.421485 10833.020563 13277.578458 10056.578512 18087.727116 15377.387676 11581.792200 11483.041757 19564.545370 21660.440335 17636.761101 18645.982160 7968.351306 13176.168372 9803.168011 13827.405000 17101.066688 14910.478121 19283.023621 14405.243169 19281.540215 17470.514439 18719.464856 17285.885743 16571.885941 11493.906219 8372.043337 9912.154991 12990.514957 8543.378068 16928.631498 10587.884358 16980.337842 17870.235556 18192.102090 18769.466464 19387.947411 16257.168308 8487.466944 9549.122794 18814.369682 13070.814842 13299.699794 12786.140597 15933.322720 9987.016266 18678.797782 15487.626939 16249.460285 15975.018762 16176.513967 8752.896310 8798.349396 8765.483456 11749.543558 8807.089564 13002.323114 12006.147685 15960.230765 18180.942818 14279.906927 14267.098652 15681.051409 8730.152409 7064.787396 8949.131145 7896.517710 8874.887499 10653.068046 12579.854990 17508.773932 16886.995427 19694.947376 17697.542674 15512.145189 8520.006883 8127.817783 9557.559277 16373.408615 9148.527651 13451.952278 16437.591157 13022.207186 19135.163664 18786.860791 15305.140005 15507.176679 15509.416404 8238.553721 9637.971073 12271.995040 13949.322699 11460.413015 10773.310289 11082.143699 19556.550581 16151.247422 13303.218891 18159.499473 10234.004165 8333.215688 8759.828393 11600.603815 17454.661096 14010.871590 12782.971893 8276.776149 20350.414017 9880.757737 14078.987876 6972.105570 11040.224008 9180.941964 9654.753771 8619.596772 14776.540904 14679.153148 17855.789894 13886.977410 16199.465120 13887.075645 7289.894542 12305.942317 8253.063520 9202.829314 11814.907646 10626.934485 12064.244127 15294.080340 13583.683776 13871.107093 8391.879962 9818.765627 8363.207896 13680.184138 12298.807572 13322.271102 13837.433341 17807.051715 20412.874942 13648.545953 1496.875615 7663.796788 7208.563981 9190.283519 11017.864436 12728.746466 12126.038663 18385.018249 18376.605638 11945.682568 7512.598439 9035.946604 11961.831503 8657.012387 13424.622255 10292.752102 13555.094111 14191.362271 11848.231240 8642.076345 8999.818064 9075.132183 9330.358355 8700.742511 15671.666662 12762.675708 9799.278836 11823.329548 8715.112466 8559.884212 11795.578771 12031.130758 15374.973339 12044.303956 16404.987860 16480.385566 11887.146042 6075.111706 9309.140348 8299.857774 9680.616496 9325.623492 9417.811386 13138.107441 19510.854720 8407.307418 8345.611439 6829.441143 8613.880500 13296.021785 11955.704321 9238.071518 10170.555224 4718.043681 8995.889303 8685.344124 8704.751108 8303.549069 8906.407397 15308.484694 10788.575079 6171.516297 7258.045847 9229.358438 11001.324799 12588.701377 13379.692642 9044.208624 8162.184746 9800.993247 8198.703916 8766.314925 12704.887662 9561.164894 9007.611155 8690.227946 8213.168957 12178.637989 6416.560826 12208.933250 11036.499767 8951.369361 8880.312277 8529.338874 9316.709179 13727.993567 9361.951641 9102.345225 13810.362308 1420.069439 9058.876454 9318.425064 11976.806996 10105.502403 13509.132298 6946.145394 9989.404540 8697.074254 9654.515123 9338.974132 9113.696149 1808.315765 9261.131700 8607.066645 12570.412877 9036.879496 7184.813187 9859.225215 11883.872325 9356.513534 12997.098361 7103.977862 7959.229530 6669.482985 7014.847728 9260.496707 8452.800976 6940.503969 8969.635476 9011.692619 8240.613966 6512.728127 7341.465284 8965.282360 1926.299729 6044.404944 7827.046490 8308.318413 8785.572664 9173.211490 9285.462447 8226.798557 8830.774279 7473.176152 8311.754418 8881.538803 8777.160878 8322.969663 6903.837109 11641.626207 7285.805414 8472.065217 9605.635483 9233.526621 8770.339041 8083.257057 7535.359098 7889.427348 10891.548585 11005.982459 9833.063494 9084.690384 8908.490753 9817.627132 11325.511437 9450.189323 11635.959495 4834.372389 12049.823988 5771.958588 6039.589874 12316.737610 9660.457086 13450.727632 9454.412208 10985.975655 12360.701446 11137.941336 12951.186331 12520.867593 10610.345039 16475.822372 13643.747115 10552.139298 11679.619122 11696.515931 12099.169701 11400.617553 9791.921610 10038.257335 12902.397030 16632.933595 11891.355364 18456.658100 18748.312330 12599.755026 11725.626728 10156.497031 9721.488946 12961.041142 12571.452032 10736.724616 9908.727978 9231.531362 9975.543754 10318.277080 11573.883846 15382.075867 9808.973428 9422.756982 17124.137171 17861.169044 14840.032574 10598.186268 9654.654788 13745.868641 15285.793407 9424.470193 10134.256125 11885.257433 9703.431574 10518.807948 12832.238101 13084.500490 16970.205663 14014.516000 11462.779089 12154.523798 9798.957702 16373.276236 13186.923219 23284.924381 10058.736831 10658.942794 8768.468278 11443.549649 9022.305749 9221.229391 13695.425468 11543.452171 14115.687057 12406.610803 13868.752726 11723.805499 15990.867423 15958.391661 11441.683683 9395.478157 8835.626991 10470.883746 8874.759775 9500.831359 9604.011624 9588.702806 14324.106426 11484.419266 15009.572065 13546.134441 13557.804925 13126.948373 14528.298633 18257.850954 8920.866798 9124.410706 9126.013887 13422.803243 11050.603814 11343.345711 13183.690111 12752.502820 15848.967134 12222.111082 10343.762905 10477.505755 12571.710723 13115.923318 19848.469241 9024.896732 9146.724952 8728.318709 10427.912962 9608.842208 11265.573133 14416.050908 9745.450155 11780.529717 16618.633486 12018.141434 13657.147162 12352.633673 12458.307722 15034.580774 8429.903134 10046.162776 9676.125237 9165.833878 11563.050703 13756.163896 11908.631157 11506.384875 9200.452979 10594.211353 13652.990054 16517.711607 15318.104183 19440.828904 17046.988446 10361.106579 8968.115687 9193.110398 9291.153494 9373.569660 9505.011987 9916.689748 12062.390947 14934.942304 14773.102274 12181.757474 10711.339136 12188.356473 11301.251770 17258.571325 10135.857269 8862.295964 10761.619391 9997.014989 9445.557969 13088.447586 11013.062372 15854.150304 9670.911941 9144.063366 10456.440591 13123.679587 12777.309604 10077.063347 13238.264751 9443.260035 9148.762823 9163.096409 10588.850659 10132.591975 9573.613744 9437.422293 11904.375962 9308.234904 8721.845613 9597.289624 12134.195498 9937.535810 8971.195145 11365.745266 8849.699115 9290.383672 8838.683775 9228.586831 8789.736159 9962.303880 10072.368403 9091.130815 8644.770982 4369.705827 8398.537320 9001.228523 8756.999802 10319.181972 9983.563182
</DataArray>
<DataArray type="Float64" Name="Velocity" NumberOfComponents="3" format="ascii">