<VTKFile type="PolyData">
<PolyData>
<Piece NumberOfPoints="2186" NumberOfVerts="2186" NumberOfLines="0" NumberOfStrips="0" NumberOfPolys="0">
<PointData>
<DataArray type="Float64" Name="Pressure" format="ascii">
 25570.462123 25534.867210 25177.369786 25270.742967 25163.018715 25210.877210 24873.988517 25050.395573 25622.253473 25697.384141 25792.006607 24996.595446 25154.440516 25280.002266 25787.581378 26057.975207 26328.739896 27103.235293 27106.621112 26497.248209 26159.066962 25661.445712 25466.420923 25358.217033 25144.156562 24900.936289 25583.610396 25602.295538 25891.230373 26036.347258 25982.352928 25827.241878 25620.498023 25422.757024 25439.156503 25743.879413 25916.520798 25900.047113 25630.219625 25547.160032 25709.740724 25805.455411 26158.299899 26851.670680 27656.913337 27912.782571 27540.251472 26680.508536 26029.338604 26014.276782 26143.086821 25734.834980 25178.666009 24963.445137 25655.294864 25669.121985 25663.175457 25774.456845 26012.157539 26118.020783 26070.205397 25903.121940 25807.610746 25795.798057 25908.945115 26209.011090 26397.687091 26455.735935 26479.585757 26578.877237 26597.010719 26491.511230 26520.684146 26630.385725 26778.044663 26887.242334 26711.390629 26324.355189 26007.246122 25726.502261 25379.532501 25013.011125 24869.469437 24900.936289 24445.531453 24008.789950 23932.652950 23962.228986 23827.174114 23334.325248 22972.198024 22634.255790 22154.156392 22138.538872 21984.824662 21463.738775 20814.806407 20430.739389 20108.147814 19813.209859 19269.372961 18831.606444 18578.879479 18185.169911 18180.660529 17917.861069 17457.370256 17266.931832 17106.306121 16942.378377 16711.001623 16365.183513 15919.240081 15571.686884 15420.301488 15333.401381 15116.305615 14654.734015 14042.315870 13682.661431 13572.977222 13571.502802 13556.572174 13403.504260 13124.862528 12896.839686 12821.681471 12754.693185 12573.494908 12415.369652 12064.494150 11833.307573 11570.227780 11323.312614 10966.058929 10727.214612 10596.478253 10319.500183 10076.104681 9855.112355 9636.345192 9631.343289 9698.693609 9517.510299 9220.097655 9084.731483 8897.575066 8476.356360 8288.443006 8293.303819 7955.459062 7292.062044 6804.019619 6940.779298 7021.153151 6777.856693 6162.430185 5369.101578 4741.548656 4271.710419 3965.974620 3571.687517 3042.184830 2695.125340 24963.445137 24780.444137 24401.187879 24183.547244 24040.597916 23799.442168 23391.140327 22868.304683 22616.943644 22545.131752 22361.215035 21987.693846 21530.004262 20983.543115 20654.726865 20471.607817 20088.151385 19587.239039 19183.088411 18870.641870 18548.805874 18258.728297 17946.318496 17659.209275 17480.511090 17284.725394 17008.416206 16731.279625 16390.221060 16062.010366 15726.123527 15468.303108 15330.487568 15086.322974 14644.268719 14211.134792 13949.229890 13823.536614 13719.775842 13572.973569 13427.009448 13243.531687 12945.862094 12717.341421 12598.840788 12468.477203 12257.870613 12025.649190 11770.815154 11490.133946 11252.503229 10987.286313 10694.645344 10472.049716 10263.533225 10063.083551 9863.977274 9722.026868 9665.003296 9526.912827 9264.821698 9071.040081 8922.749766 8733.937981 8526.927676 8301.627978 8091.841693 7794.430928 7330.958758 6995.214474 6950.939266 6862.466462 6379.308011 5724.093340 5150.245138 4615.205090 4161.078692 3793.165636 3391.015359 2939.526895 2738.351477 24869.469437 24817.563635 24656.237653 24467.309909 24251.732980 23993.188759 23713.028531 23354.200115 22963.629591 22653.178398 22291.199495 21914.075219 21618.650217 21336.545785 21054.105377 20789.812524 20436.532710 20031.499046 19686.926036 19389.794802 19160.666310 18904.231126 18509.965847 18045.829888 17627.170477 17321.925251 17058.906204 16806.647828 16543.440430 16280.444702 15991.216809 15689.168889 15428.320213 15168.148669 14865.032472 14554.485462 14280.718181 14077.884163 13916.915815 13727.012524 13498.478076 13256.118782 12996.821045 12771.886352 12610.067931 12455.127653 12277.829328 12102.766503 11905.958388 11660.311279 11385.085444 11097.075305 10802.402612 10546.247685 10356.323182 10185.001134 10010.679164 9854.653694 9722.886849 9582.155567 9402.684522 9209.233462 9030.226617 8854.505363 8664.470957 8453.786974 8224.081423 7959.919299 7638.791133 7308.699828 7042.304674 6805.292834 6467.740861 5985.586987 5442.528621 4913.159827 4427.267131 3995.129682 3597.284733 3208.964080 2882.179357 2769.049187 2695.125340 2443.128426 2080.788696 1823.069922 1658.159667 1525.138656 1388.969324 1284.162881 1203.986120 1151.696189 1126.203271 1109.046534 1096.626837 1084.601990 1073.567496 1063.625268 1054.694492 1046.644947 1039.329056 1032.590405 1026.265451 1020.178138 1014.113563 1007.690105 1000.314627 995.814919 2738.351477 2627.848058 2420.934493 2137.911641 1888.237697 1698.210314 1554.197238 1432.717414 1326.135154 1240.115043 1177.253328 1139.801034 1117.925682 1103.341179 1090.683259 1079.311651 1069.096333 1059.914619 1051.640520 1044.142065 1037.281849 1030.918421 1024.908162 1019.107639 1013.379016 1007.618015 1001.961906 998.085037 996.551165 2769.049187 2713.381022 2600.681934 2398.240825 2144.171879 1905.995349 1712.408399 1562.407822 1439.461624 1334.063967 1248.412187 1185.866224 1145.407416 1120.880084 1104.204915 1090.817495 1079.241116 1068.963395 1059.759212 1051.474218 1043.968176 1037.101032 1030.731257 1024.719411 1018.938973 1013.306722 1007.867253 1002.952235 999.204330 997.399676 996.935010 995.814919 989.682366 978.403584 967.328727 956.093170 944.393606 932.143159 919.312284 905.894168 891.893411 877.322022 862.197616 846.542326 830.381962 813.745302 796.663462 779.169331 761.297074 743.081692 724.558636 705.763472 686.731592 667.497974 648.096973 628.562153 608.926153 589.220581 569.475932 549.721536 529.985526 510.294827 490.675160 471.151071 451.745966 432.482168 413.380983 394.462782 375.747093 357.252703 338.997772 320.999958 303.276550 285.844607 268.721117 251.923149 235.468024 219.373491 203.657907 188.340428 173.441202 158.981571 144.984276 131.473664 118.475903 106.019191 94.133980 82.853180 72.212382 62.250060 53.007780 44.530398 36.866252 30.067335 24.189468 19.292446 15.440172 12.700769 11.146665 10.854653 11.905920 14.386040 18.384930 23.996759 31.319815 40.456315 51.512167 64.596657 79.822085 97.303322 117.157293 139.502381 164.457757 192.142609 222.675301 256.172436 292.747837 332.511445 375.568147 422.016536 471.947643 525.443684 582.577005 643.409708 707.995549 776.389230 848.679810 925.104807 1006.424254 1095.584874 1197.435691 1257.629982 996.551165 993.872581 987.318961 977.637443 967.139841 956.055298 944.401093 932.164425 919.337646 905.920480 891.919533 877.347454 862.222079 846.565628 830.403962 813.765892 796.682560 779.186877 761.313031 743.096039 724.571367 705.774594 686.741124 667.505942 648.103413 628.567107 608.929667 589.222705 569.476717 549.721037 529.983798 510.291923 490.671134 471.145974 451.739846 432.475071 413.372951 394.453854 375.737301 357.242076 338.986333 320.987723 303.263528 285.830803 268.706525 251.907758 235.451815 219.356435 203.639968 188.321560 173.421350 158.960672 144.962256 131.450440 118.451381 105.993270 94.106546 82.824111 72.181546 62.217316 52.972979 44.493381 36.826851 30.025378 24.144773 19.244826 15.389437 12.646723 11.089111 10.793393 11.840757 14.316780 18.311382 23.918740 31.237152 40.368847 51.419746 64.499157 79.719398 97.195367 117.044015 139.383761 164.333810 192.013390 222.540912 256.033024 292.603602 332.362640 375.415078 421.859552 471.787095 525.279794 582.409423 643.236086 707.806874 776.154541 848.295864 924.226166 1003.884903 1086.783467 1169.961978 1228.691085 1251.897548 996.935010 995.971340 992.534363 985.835639 977.041180 966.920675 955.968004 944.355353 932.131462 919.308707 905.893075 891.893077 877.321920 862.197585 846.542316 830.381959 813.745301 796.663462 779.169331 761.297074 743.081692 724.558636 705.763472 686.731592 667.497974 648.096973 628.562153 608.926153 589.220581 569.475932 549.721536 529.985526 510.294827 490.675160 471.151071 451.745966 432.482168 413.380983 394.462782 375.747093 357.252703 338.997772 320.999958 303.276550 285.844607 268.721117 251.923149 235.468024 219.373491 203.657907 188.340428 173.441202 158.981571 144.984276 131.473664 118.475903 106.019191 94.133980 82.853180 72.212382 62.250060 53.007780 44.530398 36.866252 30.067335 24.189468 19.292446 15.440172 12.700769 11.146665 10.854653 11.905920 14.386040 18.384930 23.996759 31.319815 40.456315 51.512167 64.596657 79.822085 97.303322 117.157293 139.502381 164.457757 192.142609 222.675301 256.172435 292.747834 332.511435 375.568113 422.016427 471.947286 525.442521 582.573214 643.397350 707.955265 776.257905 848.251687 923.708416 1001.882250 1080.529039 1153.662766 1211.648610 1241.048718 1248.735851 1257.629982 1329.555416 1459.756617 1584.496752 1707.795926 1832.793790 1960.184852 2090.111729 2222.588384 2357.645396 2495.389514 2636.039259 2779.954216 2927.661407 3079.874699 3237.494779 3401.564171 3573.132230 3752.959996 3940.969031 4135.319262 4330.981743 4517.611874 4686.535288 4820.239426 4951.885591 5306.989554 5572.477853 6090.563173 7387.154556 8157.334380 8772.770409 9993.225384 11063.167293 11897.589586 12601.372425 13216.409985 14518.136128 16051.281656 17360.288551 18457.850297 19337.049394 20150.342841 21022.411546 21937.861998 22697.623512 23583.058418 23884.514973 24573.569415 25249.110213 25570.462123 1251.897548 1282.863245 1358.433259 1469.176142 1586.981440 1708.462594 1832.920879 1960.152318 2090.032158 2222.493703 2357.542203 2495.275858 2635.909733 2779.801546 2927.477174 3079.650276 3237.223356 3401.245087 3572.779903 3752.622698 3940.772810 4135.587074 4332.587536 4523.025945 4697.576940 4860.853289 5035.954086 5315.065318 5669.772739 6240.774265 7230.171901 8075.174909 8771.298640 9805.257009 10874.658372 11781.545937 12528.108530 13277.050126 14522.824878 15940.406449 17212.718034 18339.653093 19311.421650 20122.027263 20899.257110 21720.979832 22444.123467 23223.969110 24151.387585 24944.308306 25277.180176 25432.993281 25583.610396 1248.735851 1259.893301 1299.415782 1376.294854 1476.295378 1589.490107 1709.338042 1833.268457 1960.331038 2090.156750 2222.602250 2357.649667 2495.390828 2636.039661 2779.954337 2927.661454 3079.874809 3237.495366 3401.566991 3573.144556 3753.010556 3941.167159 4136.068566 4333.736117 4527.456034 4711.011879 4893.904482 5109.227255 5393.204641 5796.161284 6401.557089 7185.521448 8006.451074 8858.120639 9826.411174 10823.748915 11717.038917 12489.252759 13363.029661 14506.754258 15780.503642 17012.869076 18152.914373 19198.149847 20154.334640 21039.901093 21902.975129 22726.766209 23476.048641 24155.274448 24629.085556 25011.752623 25397.764707 25620.677614 25655.294864 8254.652251 8364.863163 10886.271808 11602.503107 13053.343377 12897.531060 12812.824427 18586.901551 14857.997294 11028.245605 19609.496644 19969.020654 21003.243299 22652.442805 22781.976508 22160.691838 23438.657925 23608.317652 23996.119114 24722.152015 10853.409619 15510.921587 10472.228009 17170.555933 13340.398105 13252.554177 13630.879064 17339.025228 18110.832432 18326.668696 18743.773473 21694.182166 23497.803204 23643.603498 23601.061189 21356.199868 23912.084123 23973.154957 24599.801138 24624.993487 14293.136000 16031.494491 11756.368958 19239.509662 13918.411775 16116.258376 16662.116946 23103.562826 20307.290180 20699.508704 21287.818285 22105.703933 20990.458408 22407.219562 23649.760062 24462.680992 24166.754977 23829.240085 24710.436357 23826.770319 18379.669491 20196.437972 13998.349063 16807.852367 16730.824785 22307.994558 14667.962490 20606.371636 20920.050941 22231.161816 22203.048311 24360.264209 23463.940230 23216.378047 21732.536336 23701.698218 25002.665744 24316.094389 24736.986302 24703.043101 19895.028252 22358.529431 14679.937375 16062.076890 21768.348758 19286.958614 14540.344775 20981.386887 19851.204518 14902.650394 22832.039767 21176.929346 21875.601200 22790.511526 22124.368741 23817.833554 22429.159240 24050.255610 24051.542799 24662.891725 12587.684064 18074.000937 13122.730052 13085.579916 15660.406941 16951.209603 19252.029933 23091.088120 18853.076702 19818.378193 21362.808866 24746.898171 17734.958671 18384.834112 22505.520113 23966.344001 22563.716152 24002.684211 24053.641997 24755.250385 19575.363957 15708.003232 17852.696424 18038.680968 14027.724286 21746.899067 22245.136681 21741.723171 20663.418701 15416.587194 21648.933854 21506.007279 24111.181010 22979.555722 21833.570362 21707.040214 23452.336427 26100.192373 24870.831850 24781.037476 17484.782061 13558.886114 15040.792687 16975.809291 17167.404086 14428.603020 16079.259982 19476.257976 21081.009153 16780.312152 22403.882243 19432.918699 22485.287874 22671.480831 22611.220011 24133.643869 22361.793059 24782.905424 25945.413212 25856.117302 14393.449475 13314.798682 14603.792325 12444.664518 16975.269299 14004.288078 18367.117444 14575.101588 14379.007667 15589.506772 16075.666074 18383.932475 19945.351153 21674.361944 21777.072409 19235.824250 22681.331217 19492.088749 26086.211697 25622.445614 13983.076419 15281.824381 19475.633458 14227.459590 15394.966523 17556.173889 13827.491000 13858.930812 15540.270630 21630.853284 19234.365043 18427.552815 20862.882078 20782.922434 19526.177389 20702.940699 25787.700399 25255.695730 20351.887738 25712.716272 17243.490253 17867.179136 14264.906681 16252.064059 17870.063318 19697.082889 16180.859918 16462.821095 18126.487662 18220.448732 15579.380583 22443.242376 19152.969887 25854.712744 20700.085573 23913.901865 20747.955489 24454.801263 25456.196963 25774.236409 11685.006055 12044.659097 14413.885414 16571.595831 14282.591722 15604.248488 14819.554678 12808.683745 14808.487874 22831.749927 19389.297966 15915.554752 19809.618398 18147.612736 18108.375058 25962.709671 22352.329802 20383.013922 24041.738570 25209.665876 13988.913646 12611.117799 14269.648225 15614.576166 16373.907883 14116.917603 14604.480536 17042.599886 15632.780971 16052.610493 13839.743606 20657.589708 15281.994409 20506.827067 20577.817369 19491.534899 23990.734308 23525.900418 25389.730817 25308.527544 11590.481511 12036.519062 15416.345647 12625.322639 15077.388610 16630.995067 15204.129665 16442.217361 13277.428148 18585.636420 17492.485050 18524.312670 23347.396164 20605.638022 20840.004293 21683.647048 25609.841302 25292.689387 25950.168820 25236.838324 15596.525906 11275.083235 12311.996912 13013.453501 15423.558933 17196.474342 13651.731775 18243.064661 18319.432405 16305.854712 19924.089350 16848.723038 20653.722315 23021.095868 23308.912193 16603.330890 19496.936769 25140.497110 23634.455300 24997.510466 12724.136521 11379.561010 11372.085069 12213.883264 16549.248989 18656.120187 13788.561239 12714.241662 17058.197025 13104.368293 16448.609233 14969.238549 22398.444320 22143.063939 23756.769874 22199.624391 19746.017975 23130.941176 21528.016989 24944.330685 16561.072578 12031.132729 11241.889923 12001.554442 13818.039188 13268.222096 14000.323342 16799.503927 17639.108265 14784.660595 13432.600074 20833.457680 18895.094785 23573.438320 17676.180029 23425.783210 18819.664013 21529.694132 25702.469949 25425.944815 11180.870903 11303.698265 11939.332079 11255.118165 11680.707583 12688.467190 13744.262932 13407.821296 14555.248587 13952.262275 20798.907599 15871.477275 16057.605359 15307.995635 21677.087901 19010.135387 21404.440977 23973.550985 23454.062806 25670.004742 10373.665430 11362.787857 11281.138418 11885.762158 11844.407658 11936.864419 13570.576713 13581.025607 19697.282753 21087.758010 18745.555020 19768.053094 24367.392576 18592.654156 23464.365600 23839.333498 24644.334250 24364.486132 21741.220686 23335.967560 11659.863648 11220.143081 11778.628178 11819.204870 12372.157597 11690.142086 11687.997269 18434.913490 14610.167428 14256.566045 18989.364192 17442.094569 24665.610692 22165.654002 24008.761098 23521.208987 23668.882305 25407.447519 25751.090441 25323.103626 9499.188547 11314.585047 11680.553169 11351.073308 11472.453972 13069.640779 12953.727126 13885.353554 15569.850929 18987.597321 16926.509500 16589.326296 17896.295400 24147.661093 17975.298761 19722.855904 22040.694665 23529.663081 24088.865990 25350.392813 9153.702330 11775.238958 11350.301945 11260.112310 14369.175827 12414.206220 13542.134583 16022.548219 13215.921297 14260.687627 22241.708741 23661.369510 22353.797383 22225.748298 23063.305471 18049.787997 22658.468983 21048.138344 24816.219647 24949.305745 13531.212673 11552.962171 14301.911223 11675.124029 12597.649346 11765.694892 14048.811480 12837.951288 17402.710151 17320.806314 16296.888133 22102.152123 18547.981036 22887.826091 14873.086960 23921.838889 23487.469823 23736.290705 24991.316725 24699.635397 11419.682782 11383.242101 11470.246952 11565.791517 12864.414276 11731.509199 16374.425409 14796.233959 12986.143601 18657.476417 21200.025153 19744.184949 20786.893160 22658.833673 23987.962373 24696.861494 24496.127594 22781.133888 24468.830725 24992.207474 14602.348864 12341.559057 11419.362328 11555.043308 15080.199578 12142.646034 12628.875695 16012.356488 13036.737538 14839.255831 15583.999233 21256.220423 15448.976323 16058.997082 23523.843341 22866.228049 23725.169541 23796.364077 23331.180667 23794.215048 11930.556273 11680.262622 12424.334525 11740.238489 12825.089213 12061.247296 11867.690653 13959.494281 14738.935829 17118.817743 16351.886700 17316.248850 21515.615801 21121.675838 15335.417813 22549.859826 23434.230809 23332.933140 24089.719783 24991.665013 7547.204372 10855.901443 13580.868532 11981.848125 14484.777553 15468.385445 12239.101482 12380.906493 13701.092968 17232.937398 15303.105353 17073.564965 16763.193056 19873.701797 22884.784803 23314.089466 23494.727073 23163.124331 23738.867278 10960.626539 11822.918631 11477.763847 11577.451928 12558.796604 13244.278281 11972.685927 14907.043920 18202.621094 15296.620306 15996.232814 19990.329789 22861.256369 16366.705417 23674.791388 23380.081010 23485.364442 22286.489211 23856.042425 11304.028851 11234.167831 12362.842696 11731.411908 13139.157349 13593.060987 11929.855131 13480.783335 15854.465710 17109.331548 19646.364627 17265.007673 22018.221300 14588.897358 22680.684091 23266.839520 23037.646165 22788.957182 23917.316047 10852.440700 11863.198945 11542.218408 11672.978199 12655.951200 12181.688220 15444.754833 16660.176650 16338.364908 18488.222868 16815.481560 15486.447746 18553.673483 19811.243126 20999.373568 20080.207200 21648.041406 22278.321482 23608.748722 11579.133238 11941.954218 12274.228936 12077.466841 11382.603477 11386.607963 13379.015253 14261.853887 12526.659573 12847.184419 16531.736001 12906.177049 19378.595195 17345.069724 17614.627231 23518.836345 21815.177351 23233.584215 11012.188084 11380.211908 11630.409163 11858.195445 12664.035437 12495.387472 15048.047332 13198.805165 18131.860554 15690.601606 15134.538682 20564.171187 18262.227218 21536.232449 22349.883007 21926.866194 21916.798127 22559.772225 10352.377501 11081.409860 11495.690407 13554.604640 11819.048486 15813.769226 11482.725869 14412.022588 13669.893966 17783.872168 19515.365125 21088.528576 16975.875289 21745.374211 17519.531185 22600.352728 23481.194579 10581.837525 11100.520204 11103.972766 11805.560401 12368.084435 12468.668780 18709.309911 11746.049759 12441.459809 17414.207394 15148.723843 19924.360243 23960.555915 21058.724600 18262.843667 21985.576769 21945.154282 11377.245282 11059.015966 12657.754013 11199.116780 19170.094563 21041.734318 15265.832443 15204.323977 15007.131131 23068.061234 15067.081847 21835.640166 21339.724599 22271.868865 21178.160824 20448.644153 21985.021107 21988.621105 11896.863816 12187.178377 18208.354720 11262.655270 11758.835606 11923.980343 12500.545713 16074.308025 19118.484157 19358.777968 21946.418958 19636.650984 22805.890078 20630.845002 21078.278514 20902.071246 11538.145666 11342.169474 13733.938219 12123.776150 12492.275042 17521.319438 14108.569495 18255.129882 19192.082008 12965.148649 20339.653449 21162.829802 22639.300575 20109.526498 15821.656235 20867.707480 11285.896164 11267.998498 11131.199984 13165.563233 21638.452401 19367.258070 18841.704491 16895.315927 18713.020336 14047.589518 16361.806352 21479.621762 20253.626909 21847.588420 23134.033043 20234.544573 12162.066487 10861.069236 11852.737354 17563.021671 12622.647825 12788.657043 19863.168059 12887.422243 13153.117505 19791.479257 18183.134926 22991.779055 21880.465093 21775.159279 19882.063248 10509.818497 10800.071211 12285.534123 11544.202562 14600.276770 11974.263074 13780.726522 16823.677149 20251.603589 20676.274606 19133.804359 22759.730620 19345.372469 17022.725346 19556.218222 12013.391687 10417.136425 10865.061344 11296.762942 13871.306599 14889.562104 11770.822056 17025.718554 21001.079406 14726.545146 23384.365896 15967.687562 21252.228359 20548.784971 19254.932362 10501.181086 11578.158514 10744.707934 11560.101300 14072.497074 12814.522516 13553.228818 16286.469486 14347.117016 14649.132218 20503.458766 22720.289431 20618.953619 19000.821783 12711.597171 11251.055677 12163.405420 19396.118743 17283.040782 13083.024484 11549.893658 16473.671146 17419.702114 20272.483023 20060.346648 16255.521847 19734.102244 18556.190804 11180.802516 8168.891384 12714.910787 13163.543947 18519.433298 11491.247749 19721.306729 17369.304011 12838.900142 13690.434812 19408.343964 20682.425064 16258.974962 18396.861293 8158.808341 16028.810352 11360.877064 15120.664931 17927.400881 16199.116729 20966.624581 16134.035094 18427.226053 17877.610886 21361.112692 18184.810530 18063.266563 16550.154614 11815.457726 11811.346202 16569.262202 10769.854855 17910.933392 11464.503062 18984.385984 19404.171397 21891.689156 20296.394396 19462.373737 17788.760557 12248.001665 13564.328708 20470.343582 12886.992444 16560.810530 19258.410407 18602.209219 11679.829098 19191.622064 18947.697895 20134.450345 17051.374194 17456.529754 13465.278276 11732.235017 11808.204707 16031.934673 11453.431047 16835.640625 12358.071536 17011.711172 18616.311425 16689.748156 15982.427751 16491.334701 11831.735317 11432.549891 12462.267839 10439.631106 10915.977528 13132.688847 15795.749019 20315.054643 14505.045196 18245.657554 17115.301427 16853.123927 12151.092036 11062.134578 10673.892400 19649.253109 10791.798010 19014.612065 19889.967572 14950.213942 18494.660723 20086.644307 18269.106734 16851.149870 16853.791363 6762.864534 15680.103591 15126.282223 18070.029759 13858.505700 12626.201457 14609.767946 21783.460717 19479.081765 17977.158514 19930.617986 14198.451479 9567.036839 11942.957997 13621.978856 19611.002317 18918.854153 17050.907008 10619.237589 20979.978510 13156.705079 15705.648137 8432.651616 11573.406578 11606.689107 11790.783363 9088.941469 18701.488598 16123.814135 20382.688984 15377.063610 18213.154895 15451.051782 10078.441587 16213.784706 11997.975935 14179.973323 14517.611815 11484.525573 14835.439123 17221.294213 15706.423427 15305.863467 12991.217432 13462.892026 11724.734663 16450.685944 16060.954399 15543.849070 16060.667337 20282.215113 20636.693252 16937.143516 1264.124059 8189.812387 6583.475954 15278.789033 13542.609335 17167.187702 13765.760174 20817.540391 18498.208901 14856.531579 5131.644755 14096.213155 13940.923433 13800.531049 17767.149150 15226.766256 17974.747150 18476.653518 14370.249703 10712.050913 8829.008019 14247.120537 12073.076737 13956.806394 19407.551833 15140.344625 12466.626599 14565.182683 10357.444300 10385.536470 14190.330013 15587.813928 19529.162258 17168.812352 19874.529231 17975.816451 13811.883119 11014.831687 13823.876882 13197.983532 14319.211429 13351.072755 14434.301678 15249.507821 20769.100438 7166.856902 9507.317123 8377.399679 13399.682457 18550.754295 14549.246015 12615.510261 14744.436917 4334.944103 13965.270267 14139.198782 14396.378160 13148.763664 12984.881142 18131.261832 13350.711534 9978.302906 7079.199710 12481.277634 14787.526385 15173.843676 17101.440806 12777.714557 10423.763326 12818.311400 11178.743785 11124.428307 18177.377325 14077.247101 12847.570875 12010.698727 10294.308979 15662.734302 5910.297878 14728.761407 15107.963869 12845.578733 12843.316200 8449.938860 13305.860165 15765.821931 12268.662173 12448.144798 16435.288754 1159.032738 12047.802440 14737.392511 17371.088269 13121.780421 17945.593204 9635.486334 15034.329015 12494.204943 13060.704689 12254.620963 12421.559839 1654.685103 14122.954356 12787.306270 15751.784857 11981.934713 9984.301476 14273.801789 13982.188185 12830.449093 16734.943046 6937.447162 11846.699884 11287.909163 8103.690765 11654.470115 10244.248766 10260.493419 11248.938935 13352.481642 10479.298463 6766.827637 9818.981342 12708.869377 1795.591185 10230.597950 10005.531975 10648.862793 11651.454115 12581.997224 13887.815560 10503.378551 11923.203892 6717.247968 10130.481972 9692.093431 12032.251181 9869.926862 10713.661316 15035.973999 8203.965546 9853.414222 12801.027755 9696.382820 13687.941094 9321.960204 9099.196641 9051.805003 12324.014952 11391.984792 11842.801462 10786.594145 10788.752808 10878.816149 12182.478627 10625.792525 13686.083617 4920.471605 12632.643254 5615.728697 5697.700661 12036.284947 9219.934493 12436.899630 10750.858888 11566.974322 12619.349721 11810.464834 12643.804708 13154.670477 11105.447520 16999.087529 14685.941657 11937.783288 11200.314028 11860.559974 12431.596175 13134.237735 8327.478681 12040.980683 13632.813582 15814.317673 11762.335869 17215.149767 17909.782318 12990.647725 12102.609919 11415.807667 10951.012246 12668.074553 12126.861230 11238.309490 10372.187617 10592.402501 9884.169077 11143.741157 11650.217580 15672.014517 11157.610582 11594.850196 16799.134398 16861.849878 14382.624429 11738.662441 10816.750516 13781.331828 15175.854412 10543.940501 11010.917255 13395.486588 11789.145677 11455.445870 12332.921515 13231.445282 15420.063468 14373.327828 11519.787076 12036.886222 11747.671674 15579.332527 12594.513181 20966.085720 11341.040245 12485.012259 11242.520076 12255.715495 10611.653507 11171.468089 12795.655564 11753.921857 14504.969467 13166.965981 13011.980265 12728.548603 14918.628174 13999.567098 11640.090601 11012.036967 11158.486600 11657.064515 11205.163279 10836.264704 11391.877078 11299.762673 13439.572918 13359.121261 13585.301789 13187.488051 12624.899245 12543.815600 13657.155141 16821.683773 9692.118236 11336.936169 11496.668801 13421.006775 12171.834971 11957.654362 12245.717854 12730.959045 14919.860301 12414.538934 11605.911814 12324.371894 13155.254138 13032.996055 16680.231884 11245.361355 11616.011384 11022.628042 11830.350360 11535.751384 12400.243943 13606.620851 11679.922955 12330.970965 15962.643977 12477.437707 13190.551454 13505.668175 13933.146471 13532.896504 11461.737993 11372.308148 11713.218851 11538.297420 12447.964840 14152.403767 12251.235938 12662.525965 11054.987668 12546.377694 12995.357603 14434.173690 14533.289062 17314.130050 15862.733010 11921.372243 10913.315453 11327.300835 11158.887734 11371.872171 11410.657611 11288.653367 12416.914231 15141.220286 15373.620917 13072.393660 11974.206726 12798.416390 12006.201275 16128.495028 10843.333339 10755.666342 12323.735960 11621.742358 11374.933971 12586.066975 12165.612447 14923.017542 11565.436341 11462.493696 11666.327323 13349.527323 13961.239355 11977.352199 13056.124548 11578.475137 11264.669194 11484.364420 11649.509306 11105.917275 11553.867484 11688.447715 11969.783498 11194.124886 11114.718719 11205.151902 12888.599195 11971.708594 11574.928395 12261.170812 11448.147394 11262.413691 11301.675441 11293.931520 11203.943242 12006.320090 12167.354387 11168.610685 11780.487426 3866.873042 10878.505769 11392.493723 11357.946269 12995.769615 11467.343907
</DataArray>
<DataArray type="Float64" Name="Velocity" NumberOfComponents="3" format="ascii">